[ atomtypes ]
; name at.num mass charge ptype sigma epsilon
SI 14 28.08600 0.000000 A 0.4150 0.3891120
OM 8 15.99940 0.000000 A 0.3470 0.2259360
OA 8 15.99940 0.000000 A 0.3470 0.5104480
HG 1 2.01600 0.000000 A 0.1085 0.0627600
ha 1 1.008000 0.00000000 A 0.26254785 0.0673624
ca 6 12.010000 0.00000000 A 0.33152123 0.4133792
si 14 28.085000 0.00000000 A 0.4150 0.3891120

[ moleculetype ]
; name nrexcl
MSN_6_4 3

[ atoms ]
; nr type resnr resid atom cgnr charge mass
1 OM 1 OM OM1 1 -0.550000 15.99940
2 OM 2 OM OM1 2 -0.550000 15.99940
3 OM 3 OM OM1 3 -0.550000 15.99940
4 OM 4 OM OM1 4 -0.550000 15.99940
5 OM 5 OM OM1 5 -0.550000 15.99940
6 OM 6 OM OM1 6 -0.550000 15.99940
7 OM 7 OM OM1 7 -0.550000 15.99940
8 OM 8 OM OM1 8 -0.550000 15.99940
9 OM 9 OM OM1 9 -0.550000 15.99940
10 OM 10 OM OM1 10 -0.550000 15.99940
11 OM 11 OM OM1 11 -0.550000 15.99940
12 OM 12 OM OM1 12 -0.550000 15.99940
13 OM 13 OM OM1 13 -0.550000 15.99940
14 OM 14 OM OM1 14 -0.550000 15.99940
15 OM 15 OM OM1 15 -0.550000 15.99940
16 OM 16 OM OM1 16 -0.550000 15.99940
17 OM 17 OM OM1 17 -0.550000 15.99940
18 OM 18 OM OM1 18 -0.550000 15.99940
19 OM 19 OM OM1 19 -0.550000 15.99940
20 OM 20 OM OM1 20 -0.550000 15.99940
21 OM 21 OM OM1 21 -0.550000 15.99940
22 OM 22 OM OM1 22 -0.550000 15.99940
23 OM 23 OM OM1 23 -0.550000 15.99940
24 OM 24 OM OM1 24 -0.550000 15.99940
25 OM 25 OM OM1 25 -0.550000 15.99940
26 OM 26 OM OM1 26 -0.550000 15.99940
27 OM 27 OM OM1 27 -0.550000 15.99940
28 OM 28 OM OM1 28 -0.550000 15.99940
29 OM 29 OM OM1 29 -0.550000 15.99940
30 OM 30 OM OM1 30 -0.550000 15.99940
31 OM 31 OM OM1 31 -0.550000 15.99940
32 OM 32 OM OM1 32 -0.550000 15.99940
33 OM 33 OM OM1 33 -0.550000 15.99940
34 OM 34 OM OM1 34 -0.550000 15.99940
35 OM 35 OM OM1 35 -0.550000 15.99940
36 OM 36 OM OM1 36 -0.550000 15.99940
37 OM 37 OM OM1 37 -0.550000 15.99940
38 OM 38 OM OM1 38 -0.550000 15.99940
39 OM 39 OM OM1 39 -0.550000 15.99940
40 OM 40 OM OM1 40 -0.550000 15.99940
41 OM 41 OM OM1 41 -0.550000 15.99940
42 OM 42 OM OM1 42 -0.550000 15.99940
43 OM 43 OM OM1 43 -0.550000 15.99940
44 OM 44 OM OM1 44 -0.550000 15.99940
45 OM 45 OM OM1 45 -0.550000 15.99940
46 OM 46 OM OM1 46 -0.550000 15.99940
47 OM 47 OM OM1 47 -0.550000 15.99940
48 OM 48 OM OM1 48 -0.550000 15.99940
49 OM 49 OM OM1 49 -0.550000 15.99940
50 OM 50 OM OM1 50 -0.550000 15.99940
51 OM 51 OM OM1 51 -0.550000 15.99940
52 OM 52 OM OM1 52 -0.550000 15.99940
53 OM 53 OM OM1 53 -0.550000 15.99940
54 OM 54 OM OM1 54 -0.550000 15.99940
55 OM 55 OM OM1 55 -0.550000 15.99940
56 OM 56 OM OM1 56 -0.550000 15.99940
57 OM 57 OM OM1 57 -0.550000 15.99940
58 OM 58 OM OM1 58 -0.550000 15.99940
59 OM 59 OM OM1 59 -0.550000 15.99940
60 OM 60 OM OM1 60 -0.550000 15.99940
61 OM 61 OM OM1 61 -0.550000 15.99940
62 OM 62 OM OM1 62 -0.550000 15.99940
63 OM 63 OM OM1 63 -0.550000 15.99940
64 OM 64 OM OM1 64 -0.550000 15.99940
65 OM 65 OM OM1 65 -0.550000 15.99940
66 OM 66 OM OM1 66 -0.550000 15.99940
67 OM 67 OM OM1 67 -0.550000 15.99940
68 OM 68 OM OM1 68 -0.550000 15.99940
69 OM 69 OM OM1 69 -0.550000 15.99940
70 OM 70 OM OM1 70 -0.550000 15.99940
71 OM 71 OM OM1 71 -0.550000 15.99940
72 OM 72 OM OM1 72 -0.550000 15.99940
73 OM 73 OM OM1 73 -0.550000 15.99940
74 OM 74 OM OM1 74 -0.550000 15.99940
75 OM 75 OM OM1 75 -0.550000 15.99940
76 OM 76 OM OM1 76 -0.550000 15.99940
77 OM 77 OM OM1 77 -0.550000 15.99940
78 OM 78 OM OM1 78 -0.550000 15.99940
79 OM 79 OM OM1 79 -0.550000 15.99940
80 OM 80 OM OM1 80 -0.550000 15.99940
81 OM 81 OM OM1 81 -0.550000 15.99940
82 OM 82 OM OM1 82 -0.550000 15.99940
83 OM 83 OM OM1 83 -0.550000 15.99940
84 OM 84 OM OM1 84 -0.550000 15.99940
85 OM 85 OM OM1 85 -0.550000 15.99940
86 OM 86 OM OM1 86 -0.550000 15.99940
87 OM 87 OM OM1 87 -0.550000 15.99940
88 OM 88 OM OM1 88 -0.550000 15.99940
89 OM 89 OM OM1 89 -0.550000 15.99940
90 OM 90 OM OM1 90 -0.550000 15.99940
91 OM 91 OM OM1 91 -0.550000 15.99940
92 OM 92 OM OM1 92 -0.550000 15.99940
93 OM 93 OM OM1 93 -0.550000 15.99940
94 OM 94 OM OM1 94 -0.550000 15.99940
95 OM 95 OM OM1 95 -0.550000 15.99940
96 OM 96 OM OM1 96 -0.550000 15.99940
97 OM 97 OM OM1 97 -0.550000 15.99940
98 OM 98 OM OM1 98 -0.550000 15.99940
99 OM 99 OM OM1 99 -0.550000 15.99940
100 OM 100 OM OM1 100 -0.550000 15.99940
101 OM 101 OM OM1 101 -0.550000 15.99940
102 OM 102 OM OM1 102 -0.550000 15.99940
103 OM 103 OM OM1 103 -0.550000 15.99940
104 OM 104 OM OM1 104 -0.550000 15.99940
105 OM 105 OM OM1 105 -0.550000 15.99940
106 OM 106 OM OM1 106 -0.550000 15.99940
107 OM 107 OM OM1 107 -0.550000 15.99940
108 OM 108 OM OM1 108 -0.550000 15.99940
109 OM 109 OM OM1 109 -0.550000 15.99940
110 OM 110 OM OM1 110 -0.550000 15.99940
111 OM 111 OM OM1 111 -0.550000 15.99940
112 OM 112 OM OM1 112 -0.550000 15.99940
113 OM 113 OM OM1 113 -0.550000 15.99940
114 OM 114 OM OM1 114 -0.550000 15.99940
115 OM 115 OM OM1 115 -0.550000 15.99940
116 OM 116 OM OM1 116 -0.550000 15.99940
117 OM 117 OM OM1 117 -0.550000 15.99940
118 OM 118 OM OM1 118 -0.550000 15.99940
119 OM 119 OM OM1 119 -0.550000 15.99940
120 OM 120 OM OM1 120 -0.550000 15.99940
121 OM 121 OM OM1 121 -0.550000 15.99940
122 OM 122 OM OM1 122 -0.550000 15.99940
123 OM 123 OM OM1 123 -0.550000 15.99940
124 OM 124 OM OM1 124 -0.550000 15.99940
125 OM 125 OM OM1 125 -0.550000 15.99940
126 OM 126 OM OM1 126 -0.550000 15.99940
127 OM 127 OM OM1 127 -0.550000 15.99940
128 OM 128 OM OM1 128 -0.550000 15.99940
129 OM 129 OM OM1 129 -0.550000 15.99940
130 OM 130 OM OM1 130 -0.550000 15.99940
131 OM 131 OM OM1 131 -0.550000 15.99940
132 OM 132 OM OM1 132 -0.550000 15.99940
133 OM 133 OM OM1 133 -0.550000 15.99940
134 OM 134 OM OM1 134 -0.550000 15.99940
135 OM 135 OM OM1 135 -0.550000 15.99940
136 OM 136 OM OM1 136 -0.550000 15.99940
137 OM 137 OM OM1 137 -0.550000 15.99940
138 OM 138 OM OM1 138 -0.550000 15.99940
139 OM 139 OM OM1 139 -0.550000 15.99940
140 OM 140 OM OM1 140 -0.550000 15.99940
141 OM 141 OM OM1 141 -0.550000 15.99940
142 OM 142 OM OM1 142 -0.550000 15.99940
143 OM 143 OM OM1 143 -0.550000 15.99940
144 OM 144 OM OM1 144 -0.550000 15.99940
145 OM 145 OM OM1 145 -0.550000 15.99940
146 OM 146 OM OM1 146 -0.550000 15.99940
147 OM 147 OM OM1 147 -0.550000 15.99940
148 OM 148 OM OM1 148 -0.550000 15.99940
149 OM 149 OM OM1 149 -0.550000 15.99940
150 OM 150 OM OM1 150 -0.550000 15.99940
151 OM 151 OM OM1 151 -0.550000 15.99940
152 OM 152 OM OM1 152 -0.550000 15.99940
153 OM 153 OM OM1 153 -0.550000 15.99940
154 OM 154 OM OM1 154 -0.550000 15.99940
155 OM 155 OM OM1 155 -0.550000 15.99940
156 OM 156 OM OM1 156 -0.550000 15.99940
157 OM 157 OM OM1 157 -0.550000 15.99940
158 OM 158 OM OM1 158 -0.550000 15.99940
159 OM 159 OM OM1 159 -0.550000 15.99940
160 OM 160 OM OM1 160 -0.550000 15.99940
161 OM 161 OM OM1 161 -0.550000 15.99940
162 OM 162 OM OM1 162 -0.550000 15.99940
163 OM 163 OM OM1 163 -0.550000 15.99940
164 OM 164 OM OM1 164 -0.550000 15.99940
165 OM 165 OM OM1 165 -0.550000 15.99940
166 OM 166 OM OM1 166 -0.550000 15.99940
167 OM 167 OM OM1 167 -0.550000 15.99940
168 OM 168 OM OM1 168 -0.550000 15.99940
169 OM 169 OM OM1 169 -0.550000 15.99940
170 OM 170 OM OM1 170 -0.550000 15.99940
171 OM 171 OM OM1 171 -0.550000 15.99940
172 OM 172 OM OM1 172 -0.550000 15.99940
173 OM 173 OM OM1 173 -0.550000 15.99940
174 OM 174 OM OM1 174 -0.550000 15.99940
175 OM 175 OM OM1 175 -0.550000 15.99940
176 OM 176 OM OM1 176 -0.550000 15.99940
177 OM 177 OM OM1 177 -0.550000 15.99940
178 OM 178 OM OM1 178 -0.550000 15.99940
179 OM 179 OM OM1 179 -0.550000 15.99940
180 OM 180 OM OM1 180 -0.550000 15.99940
181 OM 181 OM OM1 181 -0.550000 15.99940
182 OM 182 OM OM1 182 -0.550000 15.99940
183 OM 183 OM OM1 183 -0.550000 15.99940
184 OM 184 OM OM1 184 -0.550000 15.99940
185 OM 185 OM OM1 185 -0.550000 15.99940
186 OM 186 OM OM1 186 -0.550000 15.99940
187 OM 187 OM OM1 187 -0.550000 15.99940
188 OM 188 OM OM1 188 -0.550000 15.99940
189 OM 189 OM OM1 189 -0.550000 15.99940
190 OM 190 OM OM1 190 -0.550000 15.99940
191 OM 191 OM OM1 191 -0.550000 15.99940
192 OM 192 OM OM1 192 -0.550000 15.99940
193 OM 193 OM OM1 193 -0.550000 15.99940
194 OM 194 OM OM1 194 -0.550000 15.99940
195 OM 195 OM OM1 195 -0.550000 15.99940
196 OM 196 OM OM1 196 -0.550000 15.99940
197 OM 197 OM OM1 197 -0.550000 15.99940
198 OM 198 OM OM1 198 -0.550000 15.99940
199 OM 199 OM OM1 199 -0.550000 15.99940
200 OM 200 OM OM1 200 -0.550000 15.99940
201 OM 201 OM OM1 201 -0.550000 15.99940
202 OM 202 OM OM1 202 -0.550000 15.99940
203 OM 203 OM OM1 203 -0.550000 15.99940
204 OM 204 OM OM1 204 -0.550000 15.99940
205 OM 205 OM OM1 205 -0.550000 15.99940
206 OM 206 OM OM1 206 -0.550000 15.99940
207 OM 207 OM OM1 207 -0.550000 15.99940
208 OM 208 OM OM1 208 -0.550000 15.99940
209 OM 209 OM OM1 209 -0.550000 15.99940
210 OM 210 OM OM1 210 -0.550000 15.99940
211 OM 211 OM OM1 211 -0.550000 15.99940
212 OM 212 OM OM1 212 -0.550000 15.99940
213 OM 213 OM OM1 213 -0.550000 15.99940
214 OM 214 OM OM1 214 -0.550000 15.99940
215 OM 215 OM OM1 215 -0.550000 15.99940
216 OM 216 OM OM1 216 -0.550000 15.99940
217 OM 217 OM OM1 217 -0.550000 15.99940
218 OM 218 OM OM1 218 -0.550000 15.99940
219 OM 219 OM OM1 219 -0.550000 15.99940
220 OM 220 OM OM1 220 -0.550000 15.99940
221 OM 221 OM OM1 221 -0.550000 15.99940
222 OM 222 OM OM1 222 -0.550000 15.99940
223 OM 223 OM OM1 223 -0.550000 15.99940
224 OM 224 OM OM1 224 -0.550000 15.99940
225 OM 225 OM OM1 225 -0.550000 15.99940
226 OM 226 OM OM1 226 -0.550000 15.99940
227 OM 227 OM OM1 227 -0.550000 15.99940
228 OM 228 OM OM1 228 -0.550000 15.99940
229 OM 229 OM OM1 229 -0.550000 15.99940
230 OM 230 OM OM1 230 -0.550000 15.99940
231 OM 231 OM OM1 231 -0.550000 15.99940
232 OM 232 OM OM1 232 -0.550000 15.99940
233 OM 233 OM OM1 233 -0.550000 15.99940
234 OM 234 OM OM1 234 -0.550000 15.99940
235 OM 235 OM OM1 235 -0.550000 15.99940
236 OM 236 OM OM1 236 -0.550000 15.99940
237 OM 237 OM OM1 237 -0.550000 15.99940
238 OM 238 OM OM1 238 -0.550000 15.99940
239 OM 239 OM OM1 239 -0.550000 15.99940
240 OM 240 OM OM1 240 -0.550000 15.99940
241 OM 241 OM OM1 241 -0.550000 15.99940
242 OM 242 OM OM1 242 -0.550000 15.99940
243 OM 243 OM OM1 243 -0.550000 15.99940
244 OM 244 OM OM1 244 -0.550000 15.99940
245 OM 245 OM OM1 245 -0.550000 15.99940
246 OM 246 OM OM1 246 -0.550000 15.99940
247 OM 247 OM OM1 247 -0.550000 15.99940
248 OM 248 OM OM1 248 -0.550000 15.99940
249 OM 249 OM OM1 249 -0.550000 15.99940
250 OM 250 OM OM1 250 -0.550000 15.99940
251 OM 251 OM OM1 251 -0.550000 15.99940
252 OM 252 OM OM1 252 -0.550000 15.99940
253 OM 253 OM OM1 253 -0.550000 15.99940
254 OM 254 OM OM1 254 -0.550000 15.99940
255 OM 255 OM OM1 255 -0.550000 15.99940
256 OM 256 OM OM1 256 -0.550000 15.99940
257 OM 257 OM OM1 257 -0.550000 15.99940
258 OM 258 OM OM1 258 -0.550000 15.99940
259 OM 259 OM OM1 259 -0.550000 15.99940
260 OM 260 OM OM1 260 -0.550000 15.99940
261 OM 261 OM OM1 261 -0.550000 15.99940
262 OM 262 OM OM1 262 -0.550000 15.99940
263 OM 263 OM OM1 263 -0.550000 15.99940
264 OM 264 OM OM1 264 -0.550000 15.99940
265 OM 265 OM OM1 265 -0.550000 15.99940
266 OM 266 OM OM1 266 -0.550000 15.99940
267 OM 267 OM OM1 267 -0.550000 15.99940
268 OM 268 OM OM1 268 -0.550000 15.99940
269 OM 269 OM OM1 269 -0.550000 15.99940
270 OM 270 OM OM1 270 -0.550000 15.99940
271 OM 271 OM OM1 271 -0.550000 15.99940
272 OM 272 OM OM1 272 -0.550000 15.99940
273 OM 273 OM OM1 273 -0.550000 15.99940
274 OM 274 OM OM1 274 -0.550000 15.99940
275 OM 275 OM OM1 275 -0.550000 15.99940
276 OM 276 OM OM1 276 -0.550000 15.99940
277 OM 277 OM OM1 277 -0.550000 15.99940
278 OM 278 OM OM1 278 -0.550000 15.99940
279 OM 279 OM OM1 279 -0.550000 15.99940
280 OM 280 OM OM1 280 -0.550000 15.99940
281 OM 281 OM OM1 281 -0.550000 15.99940
282 OM 282 OM OM1 282 -0.550000 15.99940
283 OM 283 OM OM1 283 -0.550000 15.99940
284 OM 284 OM OM1 284 -0.550000 15.99940
285 OM 285 OM OM1 285 -0.550000 15.99940
286 OM 286 OM OM1 286 -0.550000 15.99940
287 OM 287 OM OM1 287 -0.550000 15.99940
288 OM 288 OM OM1 288 -0.550000 15.99940
289 OM 289 OM OM1 289 -0.550000 15.99940
290 OM 290 OM OM1 290 -0.550000 15.99940
291 OM 291 OM OM1 291 -0.550000 15.99940
292 OM 292 OM OM1 292 -0.550000 15.99940
293 OM 293 OM OM1 293 -0.550000 15.99940
294 OM 294 OM OM1 294 -0.550000 15.99940
295 OM 295 OM OM1 295 -0.550000 15.99940
296 OM 296 OM OM1 296 -0.550000 15.99940
297 OM 297 OM OM1 297 -0.550000 15.99940
298 OM 298 OM OM1 298 -0.550000 15.99940
299 OM 299 OM OM1 299 -0.550000 15.99940
300 OM 300 OM OM1 300 -0.550000 15.99940
301 OM 301 OM OM1 301 -0.550000 15.99940
302 OM 302 OM OM1 302 -0.550000 15.99940
303 OM 303 OM OM1 303 -0.550000 15.99940
304 OM 304 OM OM1 304 -0.550000 15.99940
305 OM 305 OM OM1 305 -0.550000 15.99940
306 OM 306 OM OM1 306 -0.550000 15.99940
307 OM 307 OM OM1 307 -0.550000 15.99940
308 OM 308 OM OM1 308 -0.550000 15.99940
309 OM 309 OM OM1 309 -0.550000 15.99940
310 OM 310 OM OM1 310 -0.550000 15.99940
311 OM 311 OM OM1 311 -0.550000 15.99940
312 OM 312 OM OM1 312 -0.550000 15.99940
313 OM 313 OM OM1 313 -0.550000 15.99940
314 OM 314 OM OM1 314 -0.550000 15.99940
315 OM 315 OM OM1 315 -0.550000 15.99940
316 OM 316 OM OM1 316 -0.550000 15.99940
317 OM 317 OM OM1 317 -0.550000 15.99940
318 OM 318 OM OM1 318 -0.550000 15.99940
319 OM 319 OM OM1 319 -0.550000 15.99940
320 OM 320 OM OM1 320 -0.550000 15.99940
321 OM 321 OM OM1 321 -0.550000 15.99940
322 OM 322 OM OM1 322 -0.550000 15.99940
323 OM 323 OM OM1 323 -0.550000 15.99940
324 OM 324 OM OM1 324 -0.550000 15.99940
325 OM 325 OM OM1 325 -0.550000 15.99940
326 OM 326 OM OM1 326 -0.550000 15.99940
327 OM 327 OM OM1 327 -0.550000 15.99940
328 OM 328 OM OM1 328 -0.550000 15.99940
329 OM 329 OM OM1 329 -0.550000 15.99940
330 OM 330 OM OM1 330 -0.550000 15.99940
331 OM 331 OM OM1 331 -0.550000 15.99940
332 OM 332 OM OM1 332 -0.550000 15.99940
333 OM 333 OM OM1 333 -0.550000 15.99940
334 OM 334 OM OM1 334 -0.550000 15.99940
335 OM 335 OM OM1 335 -0.550000 15.99940
336 OM 336 OM OM1 336 -0.550000 15.99940
337 OM 337 OM OM1 337 -0.550000 15.99940
338 OM 338 OM OM1 338 -0.550000 15.99940
339 OM 339 OM OM1 339 -0.550000 15.99940
340 OM 340 OM OM1 340 -0.550000 15.99940
341 OM 341 OM OM1 341 -0.550000 15.99940
342 OM 342 OM OM1 342 -0.550000 15.99940
343 OM 343 OM OM1 343 -0.550000 15.99940
344 OM 344 OM OM1 344 -0.550000 15.99940
345 OM 345 OM OM1 345 -0.550000 15.99940
346 OM 346 OM OM1 346 -0.550000 15.99940
347 OM 347 OM OM1 347 -0.550000 15.99940
348 OM 348 OM OM1 348 -0.550000 15.99940
349 OM 349 OM OM1 349 -0.550000 15.99940
350 OM 350 OM OM1 350 -0.550000 15.99940
351 OM 351 OM OM1 351 -0.550000 15.99940
352 OM 352 OM OM1 352 -0.550000 15.99940
353 OM 353 OM OM1 353 -0.550000 15.99940
354 OM 354 OM OM1 354 -0.550000 15.99940
355 OM 355 OM OM1 355 -0.550000 15.99940
356 OM 356 OM OM1 356 -0.550000 15.99940
357 OM 357 OM OM1 357 -0.550000 15.99940
358 OM 358 OM OM1 358 -0.550000 15.99940
359 OM 359 OM OM1 359 -0.550000 15.99940
360 OM 360 OM OM1 360 -0.550000 15.99940
361 OM 361 OM OM1 361 -0.550000 15.99940
362 OM 362 OM OM1 362 -0.550000 15.99940
363 OM 363 OM OM1 363 -0.550000 15.99940
364 OM 364 OM OM1 364 -0.550000 15.99940
365 OM 365 OM OM1 365 -0.550000 15.99940
366 OM 366 OM OM1 366 -0.550000 15.99940
367 OM 367 OM OM1 367 -0.550000 15.99940
368 OM 368 OM OM1 368 -0.550000 15.99940
369 OM 369 OM OM1 369 -0.550000 15.99940
370 OM 370 OM OM1 370 -0.550000 15.99940
371 OM 371 OM OM1 371 -0.550000 15.99940
372 OM 372 OM OM1 372 -0.550000 15.99940
373 OM 373 OM OM1 373 -0.550000 15.99940
374 OM 374 OM OM1 374 -0.550000 15.99940
375 OM 375 OM OM1 375 -0.550000 15.99940
376 OM 376 OM OM1 376 -0.550000 15.99940
377 OM 377 OM OM1 377 -0.550000 15.99940
378 OM 378 OM OM1 378 -0.550000 15.99940
379 OM 379 OM OM1 379 -0.550000 15.99940
380 OM 380 OM OM1 380 -0.550000 15.99940
381 OM 381 OM OM1 381 -0.550000 15.99940
382 OM 382 OM OM1 382 -0.550000 15.99940
383 OM 383 OM OM1 383 -0.550000 15.99940
384 OM 384 OM OM1 384 -0.550000 15.99940
385 OM 385 OM OM1 385 -0.550000 15.99940
386 OM 386 OM OM1 386 -0.550000 15.99940
387 OM 387 OM OM1 387 -0.550000 15.99940
388 OM 388 OM OM1 388 -0.550000 15.99940
389 OM 389 OM OM1 389 -0.550000 15.99940
390 OM 390 OM OM1 390 -0.550000 15.99940
391 OM 391 OM OM1 391 -0.550000 15.99940
392 OM 392 OM OM1 392 -0.550000 15.99940
393 OM 393 OM OM1 393 -0.550000 15.99940
394 OM 394 OM OM1 394 -0.550000 15.99940
395 OM 395 OM OM1 395 -0.550000 15.99940
396 OM 396 OM OM1 396 -0.550000 15.99940
397 OM 397 OM OM1 397 -0.550000 15.99940
398 OM 398 OM OM1 398 -0.550000 15.99940
399 OM 399 OM OM1 399 -0.550000 15.99940
400 OM 400 OM OM1 400 -0.550000 15.99940
401 OM 401 OM OM1 401 -0.550000 15.99940
402 OM 402 OM OM1 402 -0.550000 15.99940
403 OM 403 OM OM1 403 -0.550000 15.99940
404 OM 404 OM OM1 404 -0.550000 15.99940
405 OM 405 OM OM1 405 -0.550000 15.99940
406 OM 406 OM OM1 406 -0.550000 15.99940
407 OM 407 OM OM1 407 -0.550000 15.99940
408 OM 408 OM OM1 408 -0.550000 15.99940
409 OM 409 OM OM1 409 -0.550000 15.99940
410 OM 410 OM OM1 410 -0.550000 15.99940
411 OM 411 OM OM1 411 -0.550000 15.99940
412 OM 412 OM OM1 412 -0.550000 15.99940
413 OM 413 OM OM1 413 -0.550000 15.99940
414 OM 414 OM OM1 414 -0.550000 15.99940
415 OM 415 OM OM1 415 -0.550000 15.99940
416 OM 416 OM OM1 416 -0.550000 15.99940
417 OM 417 OM OM1 417 -0.550000 15.99940
418 OM 418 OM OM1 418 -0.550000 15.99940
419 OM 419 OM OM1 419 -0.550000 15.99940
420 OM 420 OM OM1 420 -0.550000 15.99940
421 OM 421 OM OM1 421 -0.550000 15.99940
422 OM 422 OM OM1 422 -0.550000 15.99940
423 OM 423 OM OM1 423 -0.550000 15.99940
424 OM 424 OM OM1 424 -0.550000 15.99940
425 OM 425 OM OM1 425 -0.550000 15.99940
426 OM 426 OM OM1 426 -0.550000 15.99940
427 OM 427 OM OM1 427 -0.550000 15.99940
428 OM 428 OM OM1 428 -0.550000 15.99940
429 OM 429 OM OM1 429 -0.550000 15.99940
430 OM 430 OM OM1 430 -0.550000 15.99940
431 OM 431 OM OM1 431 -0.550000 15.99940
432 OM 432 OM OM1 432 -0.550000 15.99940
433 OM 433 OM OM1 433 -0.550000 15.99940
434 OM 434 OM OM1 434 -0.550000 15.99940
435 OM 435 OM OM1 435 -0.550000 15.99940
436 OM 436 OM OM1 436 -0.550000 15.99940
437 OM 437 OM OM1 437 -0.550000 15.99940
438 OM 438 OM OM1 438 -0.550000 15.99940
439 OM 439 OM OM1 439 -0.550000 15.99940
440 OM 440 OM OM1 440 -0.550000 15.99940
441 OM 441 OM OM1 441 -0.550000 15.99940
442 OM 442 OM OM1 442 -0.550000 15.99940
443 OM 443 OM OM1 443 -0.550000 15.99940
444 OM 444 OM OM1 444 -0.550000 15.99940
445 OM 445 OM OM1 445 -0.550000 15.99940
446 OM 446 OM OM1 446 -0.550000 15.99940
447 OM 447 OM OM1 447 -0.550000 15.99940
448 OM 448 OM OM1 448 -0.550000 15.99940
449 OM 449 OM OM1 449 -0.550000 15.99940
450 OM 450 OM OM1 450 -0.550000 15.99940
451 OM 451 OM OM1 451 -0.550000 15.99940
452 OM 452 OM OM1 452 -0.550000 15.99940
453 OM 453 OM OM1 453 -0.550000 15.99940
454 OM 454 OM OM1 454 -0.550000 15.99940
455 OM 455 OM OM1 455 -0.550000 15.99940
456 OM 456 OM OM1 456 -0.550000 15.99940
457 OM 457 OM OM1 457 -0.550000 15.99940
458 OM 458 OM OM1 458 -0.550000 15.99940
459 OM 459 OM OM1 459 -0.550000 15.99940
460 OM 460 OM OM1 460 -0.550000 15.99940
461 OM 461 OM OM1 461 -0.550000 15.99940
462 OM 462 OM OM1 462 -0.550000 15.99940
463 OM 463 OM OM1 463 -0.550000 15.99940
464 OM 464 OM OM1 464 -0.550000 15.99940
465 OM 465 OM OM1 465 -0.550000 15.99940
466 OM 466 OM OM1 466 -0.550000 15.99940
467 OM 467 OM OM1 467 -0.550000 15.99940
468 OM 468 OM OM1 468 -0.550000 15.99940
469 OM 469 OM OM1 469 -0.550000 15.99940
470 OM 470 OM OM1 470 -0.550000 15.99940
471 OM 471 OM OM1 471 -0.550000 15.99940
472 OM 472 OM OM1 472 -0.550000 15.99940
473 OM 473 OM OM1 473 -0.550000 15.99940
474 OM 474 OM OM1 474 -0.550000 15.99940
475 OM 475 OM OM1 475 -0.550000 15.99940
476 OM 476 OM OM1 476 -0.550000 15.99940
477 OM 477 OM OM1 477 -0.550000 15.99940
478 OM 478 OM OM1 478 -0.550000 15.99940
479 OM 479 OM OM1 479 -0.550000 15.99940
480 OM 480 OM OM1 480 -0.550000 15.99940
481 OM 481 OM OM1 481 -0.550000 15.99940
482 OM 482 OM OM1 482 -0.550000 15.99940
483 OM 483 OM OM1 483 -0.550000 15.99940
484 OM 484 OM OM1 484 -0.550000 15.99940
485 OM 485 OM OM1 485 -0.550000 15.99940
486 OM 486 OM OM1 486 -0.550000 15.99940
487 OM 487 OM OM1 487 -0.550000 15.99940
488 OM 488 OM OM1 488 -0.550000 15.99940
489 OM 489 OM OM1 489 -0.550000 15.99940
490 OM 490 OM OM1 490 -0.550000 15.99940
491 OM 491 OM OM1 491 -0.550000 15.99940
492 OM 492 OM OM1 492 -0.550000 15.99940
493 OM 493 OM OM1 493 -0.550000 15.99940
494 OM 494 OM OM1 494 -0.550000 15.99940
495 OM 495 OM OM1 495 -0.550000 15.99940
496 OM 496 OM OM1 496 -0.550000 15.99940
497 OM 497 OM OM1 497 -0.550000 15.99940
498 OM 498 OM OM1 498 -0.550000 15.99940
499 OM 499 OM OM1 499 -0.550000 15.99940
500 OM 500 OM OM1 500 -0.550000 15.99940
501 OM 501 OM OM1 501 -0.550000 15.99940
502 OM 502 OM OM1 502 -0.550000 15.99940
503 OM 503 OM OM1 503 -0.550000 15.99940
504 OM 504 OM OM1 504 -0.550000 15.99940
505 OM 505 OM OM1 505 -0.550000 15.99940
506 OM 506 OM OM1 506 -0.550000 15.99940
507 OM 507 OM OM1 507 -0.550000 15.99940
508 OM 508 OM OM1 508 -0.550000 15.99940
509 OM 509 OM OM1 509 -0.550000 15.99940
510 OM 510 OM OM1 510 -0.550000 15.99940
511 OM 511 OM OM1 511 -0.550000 15.99940
512 OM 512 OM OM1 512 -0.550000 15.99940
513 OM 513 OM OM1 513 -0.550000 15.99940
514 OM 514 OM OM1 514 -0.550000 15.99940
515 OM 515 OM OM1 515 -0.550000 15.99940
516 OM 516 OM OM1 516 -0.550000 15.99940
517 OM 517 OM OM1 517 -0.550000 15.99940
518 OM 518 OM OM1 518 -0.550000 15.99940
519 OM 519 OM OM1 519 -0.550000 15.99940
520 OM 520 OM OM1 520 -0.550000 15.99940
521 OM 521 OM OM1 521 -0.550000 15.99940
522 OM 522 OM OM1 522 -0.550000 15.99940
523 OM 523 OM OM1 523 -0.550000 15.99940
524 OM 524 OM OM1 524 -0.550000 15.99940
525 OM 525 OM OM1 525 -0.550000 15.99940
526 OM 526 OM OM1 526 -0.550000 15.99940
527 OM 527 OM OM1 527 -0.550000 15.99940
528 OM 528 OM OM1 528 -0.550000 15.99940
529 OM 529 OM OM1 529 -0.550000 15.99940
530 OM 530 OM OM1 530 -0.550000 15.99940
531 OM 531 OM OM1 531 -0.550000 15.99940
532 OM 532 OM OM1 532 -0.550000 15.99940
533 OM 533 OM OM1 533 -0.550000 15.99940
534 OM 534 OM OM1 534 -0.550000 15.99940
535 OM 535 OM OM1 535 -0.550000 15.99940
536 OM 536 OM OM1 536 -0.550000 15.99940
537 OM 537 OM OM1 537 -0.550000 15.99940
538 OM 538 OM OM1 538 -0.550000 15.99940
539 OM 539 OM OM1 539 -0.550000 15.99940
540 OM 540 OM OM1 540 -0.550000 15.99940
541 OM 541 OM OM1 541 -0.550000 15.99940
542 OM 542 OM OM1 542 -0.550000 15.99940
543 OM 543 OM OM1 543 -0.550000 15.99940
544 OM 544 OM OM1 544 -0.550000 15.99940
545 OM 545 OM OM1 545 -0.550000 15.99940
546 OM 546 OM OM1 546 -0.550000 15.99940
547 OM 547 OM OM1 547 -0.550000 15.99940
548 OM 548 OM OM1 548 -0.550000 15.99940
549 OM 549 OM OM1 549 -0.550000 15.99940
550 OM 550 OM OM1 550 -0.550000 15.99940
551 OM 551 OM OM1 551 -0.550000 15.99940
552 OM 552 OM OM1 552 -0.550000 15.99940
553 OM 553 OM OM1 553 -0.550000 15.99940
554 OM 554 OM OM1 554 -0.550000 15.99940
555 OM 555 OM OM1 555 -0.550000 15.99940
556 OM 556 OM OM1 556 -0.550000 15.99940
557 OM 557 OM OM1 557 -0.550000 15.99940
558 OM 558 OM OM1 558 -0.550000 15.99940
559 OM 559 OM OM1 559 -0.550000 15.99940
560 OM 560 OM OM1 560 -0.550000 15.99940
561 OM 561 OM OM1 561 -0.550000 15.99940
562 OM 562 OM OM1 562 -0.550000 15.99940
563 OM 563 OM OM1 563 -0.550000 15.99940
564 OM 564 OM OM1 564 -0.550000 15.99940
565 OM 565 OM OM1 565 -0.550000 15.99940
566 OM 566 OM OM1 566 -0.550000 15.99940
567 OM 567 OM OM1 567 -0.550000 15.99940
568 OM 568 OM OM1 568 -0.550000 15.99940
569 OM 569 OM OM1 569 -0.550000 15.99940
570 OM 570 OM OM1 570 -0.550000 15.99940
571 OM 571 OM OM1 571 -0.550000 15.99940
572 OM 572 OM OM1 572 -0.550000 15.99940
573 OM 573 OM OM1 573 -0.550000 15.99940
574 OM 574 OM OM1 574 -0.550000 15.99940
575 OM 575 OM OM1 575 -0.550000 15.99940
576 OM 576 OM OM1 576 -0.550000 15.99940
577 OM 577 OM OM1 577 -0.550000 15.99940
578 OM 578 OM OM1 578 -0.550000 15.99940
579 OM 579 OM OM1 579 -0.550000 15.99940
580 OM 580 OM OM1 580 -0.550000 15.99940
581 OM 581 OM OM1 581 -0.550000 15.99940
582 OM 582 OM OM1 582 -0.550000 15.99940
583 OM 583 OM OM1 583 -0.550000 15.99940
584 OM 584 OM OM1 584 -0.550000 15.99940
585 OM 585 OM OM1 585 -0.550000 15.99940
586 OM 586 OM OM1 586 -0.550000 15.99940
587 OM 587 OM OM1 587 -0.550000 15.99940
588 OM 588 OM OM1 588 -0.550000 15.99940
589 OM 589 OM OM1 589 -0.550000 15.99940
590 OM 590 OM OM1 590 -0.550000 15.99940
591 OM 591 OM OM1 591 -0.550000 15.99940
592 OM 592 OM OM1 592 -0.550000 15.99940
593 OM 593 OM OM1 593 -0.550000 15.99940
594 OM 594 OM OM1 594 -0.550000 15.99940
595 OM 595 OM OM1 595 -0.550000 15.99940
596 OM 596 OM OM1 596 -0.550000 15.99940
597 OM 597 OM OM1 597 -0.550000 15.99940
598 OM 598 OM OM1 598 -0.550000 15.99940
599 OM 599 OM OM1 599 -0.550000 15.99940
600 OM 600 OM OM1 600 -0.550000 15.99940
601 OM 601 OM OM1 601 -0.550000 15.99940
602 OM 602 OM OM1 602 -0.550000 15.99940
603 OM 603 OM OM1 603 -0.550000 15.99940
604 OM 604 OM OM1 604 -0.550000 15.99940
605 OM 605 OM OM1 605 -0.550000 15.99940
606 OM 606 OM OM1 606 -0.550000 15.99940
607 OM 607 OM OM1 607 -0.550000 15.99940
608 OM 608 OM OM1 608 -0.550000 15.99940
609 OM 609 OM OM1 609 -0.550000 15.99940
610 OM 610 OM OM1 610 -0.550000 15.99940
611 OM 611 OM OM1 611 -0.550000 15.99940
612 OM 612 OM OM1 612 -0.550000 15.99940
613 OM 613 OM OM1 613 -0.550000 15.99940
614 OM 614 OM OM1 614 -0.550000 15.99940
615 OM 615 OM OM1 615 -0.550000 15.99940
616 OM 616 OM OM1 616 -0.550000 15.99940
617 OM 617 OM OM1 617 -0.550000 15.99940
618 OM 618 OM OM1 618 -0.550000 15.99940
619 OM 619 OM OM1 619 -0.550000 15.99940
620 OM 620 OM OM1 620 -0.550000 15.99940
621 OM 621 OM OM1 621 -0.550000 15.99940
622 OM 622 OM OM1 622 -0.550000 15.99940
623 OM 623 OM OM1 623 -0.550000 15.99940
624 OM 624 OM OM1 624 -0.550000 15.99940
625 OM 625 OM OM1 625 -0.550000 15.99940
626 OM 626 OM OM1 626 -0.550000 15.99940
627 OM 627 OM OM1 627 -0.550000 15.99940
628 OM 628 OM OM1 628 -0.550000 15.99940
629 OM 629 OM OM1 629 -0.550000 15.99940
630 OM 630 OM OM1 630 -0.550000 15.99940
631 OM 631 OM OM1 631 -0.550000 15.99940
632 OM 632 OM OM1 632 -0.550000 15.99940
633 OM 633 OM OM1 633 -0.550000 15.99940
634 OM 634 OM OM1 634 -0.550000 15.99940
635 OM 635 OM OM1 635 -0.550000 15.99940
636 OM 636 OM OM1 636 -0.550000 15.99940
637 OM 637 OM OM1 637 -0.550000 15.99940
638 OM 638 OM OM1 638 -0.550000 15.99940
639 OM 639 OM OM1 639 -0.550000 15.99940
640 OM 640 OM OM1 640 -0.550000 15.99940
641 OM 641 OM OM1 641 -0.550000 15.99940
642 OM 642 OM OM1 642 -0.550000 15.99940
643 OM 643 OM OM1 643 -0.550000 15.99940
644 OM 644 OM OM1 644 -0.550000 15.99940
645 OM 645 OM OM1 645 -0.550000 15.99940
646 OM 646 OM OM1 646 -0.550000 15.99940
647 OM 647 OM OM1 647 -0.550000 15.99940
648 OM 648 OM OM1 648 -0.550000 15.99940
649 OM 649 OM OM1 649 -0.550000 15.99940
650 OM 650 OM OM1 650 -0.550000 15.99940
651 OM 651 OM OM1 651 -0.550000 15.99940
652 OM 652 OM OM1 652 -0.550000 15.99940
653 OM 653 OM OM1 653 -0.550000 15.99940
654 OM 654 OM OM1 654 -0.550000 15.99940
655 OM 655 OM OM1 655 -0.550000 15.99940
656 OM 656 OM OM1 656 -0.550000 15.99940
657 OM 657 OM OM1 657 -0.550000 15.99940
658 OM 658 OM OM1 658 -0.550000 15.99940
659 OM 659 OM OM1 659 -0.550000 15.99940
660 OM 660 OM OM1 660 -0.550000 15.99940
661 OM 661 OM OM1 661 -0.550000 15.99940
662 OM 662 OM OM1 662 -0.550000 15.99940
663 OM 663 OM OM1 663 -0.550000 15.99940
664 OM 664 OM OM1 664 -0.550000 15.99940
665 OM 665 OM OM1 665 -0.550000 15.99940
666 OM 666 OM OM1 666 -0.550000 15.99940
667 OM 667 OM OM1 667 -0.550000 15.99940
668 OM 668 OM OM1 668 -0.550000 15.99940
669 OM 669 OM OM1 669 -0.550000 15.99940
670 OM 670 OM OM1 670 -0.550000 15.99940
671 OM 671 OM OM1 671 -0.550000 15.99940
672 OM 672 OM OM1 672 -0.550000 15.99940
673 OM 673 OM OM1 673 -0.550000 15.99940
674 OM 674 OM OM1 674 -0.550000 15.99940
675 OM 675 OM OM1 675 -0.550000 15.99940
676 OM 676 OM OM1 676 -0.550000 15.99940
677 OM 677 OM OM1 677 -0.550000 15.99940
678 OM 678 OM OM1 678 -0.550000 15.99940
679 OM 679 OM OM1 679 -0.550000 15.99940
680 OM 680 OM OM1 680 -0.550000 15.99940
681 OM 681 OM OM1 681 -0.550000 15.99940
682 OM 682 OM OM1 682 -0.550000 15.99940
683 OM 683 OM OM1 683 -0.550000 15.99940
684 OM 684 OM OM1 684 -0.550000 15.99940
685 OM 685 OM OM1 685 -0.550000 15.99940
686 OM 686 OM OM1 686 -0.550000 15.99940
687 OM 687 OM OM1 687 -0.550000 15.99940
688 OM 688 OM OM1 688 -0.550000 15.99940
689 OM 689 OM OM1 689 -0.550000 15.99940
690 OM 690 OM OM1 690 -0.550000 15.99940
691 OM 691 OM OM1 691 -0.550000 15.99940
692 OM 692 OM OM1 692 -0.550000 15.99940
693 OM 693 OM OM1 693 -0.550000 15.99940
694 OM 694 OM OM1 694 -0.550000 15.99940
695 OM 695 OM OM1 695 -0.550000 15.99940
696 OM 696 OM OM1 696 -0.550000 15.99940
697 OM 697 OM OM1 697 -0.550000 15.99940
698 OM 698 OM OM1 698 -0.550000 15.99940
699 OM 699 OM OM1 699 -0.550000 15.99940
700 OM 700 OM OM1 700 -0.550000 15.99940
701 OM 701 OM OM1 701 -0.550000 15.99940
702 OM 702 OM OM1 702 -0.550000 15.99940
703 OM 703 OM OM1 703 -0.550000 15.99940
704 OM 704 OM OM1 704 -0.550000 15.99940
705 OM 705 OM OM1 705 -0.550000 15.99940
706 OM 706 OM OM1 706 -0.550000 15.99940
707 OM 707 OM OM1 707 -0.550000 15.99940
708 OM 708 OM OM1 708 -0.550000 15.99940
709 OM 709 OM OM1 709 -0.550000 15.99940
710 OM 710 OM OM1 710 -0.550000 15.99940
711 OM 711 OM OM1 711 -0.550000 15.99940
712 OM 712 OM OM1 712 -0.550000 15.99940
713 OM 713 OM OM1 713 -0.550000 15.99940
714 OM 714 OM OM1 714 -0.550000 15.99940
715 OM 715 OM OM1 715 -0.550000 15.99940
716 OM 716 OM OM1 716 -0.550000 15.99940
717 OM 717 OM OM1 717 -0.550000 15.99940
718 OM 718 OM OM1 718 -0.550000 15.99940
719 OM 719 OM OM1 719 -0.550000 15.99940
720 OM 720 OM OM1 720 -0.550000 15.99940
721 OM 721 OM OM1 721 -0.550000 15.99940
722 OM 722 OM OM1 722 -0.550000 15.99940
723 OM 723 OM OM1 723 -0.550000 15.99940
724 OM 724 OM OM1 724 -0.550000 15.99940
725 OM 725 OM OM1 725 -0.550000 15.99940
726 OM 726 OM OM1 726 -0.550000 15.99940
727 OM 727 OM OM1 727 -0.550000 15.99940
728 OM 728 OM OM1 728 -0.550000 15.99940
729 OM 729 OM OM1 729 -0.550000 15.99940
730 OM 730 OM OM1 730 -0.550000 15.99940
731 OM 731 OM OM1 731 -0.550000 15.99940
732 OM 732 OM OM1 732 -0.550000 15.99940
733 OM 733 OM OM1 733 -0.550000 15.99940
734 OM 734 OM OM1 734 -0.550000 15.99940
735 OM 735 OM OM1 735 -0.550000 15.99940
736 OM 736 OM OM1 736 -0.550000 15.99940
737 OM 737 OM OM1 737 -0.550000 15.99940
738 OM 738 OM OM1 738 -0.550000 15.99940
739 OM 739 OM OM1 739 -0.550000 15.99940
740 OM 740 OM OM1 740 -0.550000 15.99940
741 OM 741 OM OM1 741 -0.550000 15.99940
742 OM 742 OM OM1 742 -0.550000 15.99940
743 OM 743 OM OM1 743 -0.550000 15.99940
744 OM 744 OM OM1 744 -0.550000 15.99940
745 OM 745 OM OM1 745 -0.550000 15.99940
746 OM 746 OM OM1 746 -0.550000 15.99940
747 OM 747 OM OM1 747 -0.550000 15.99940
748 OM 748 OM OM1 748 -0.550000 15.99940
749 OM 749 OM OM1 749 -0.550000 15.99940
750 OM 750 OM OM1 750 -0.550000 15.99940
751 OM 751 OM OM1 751 -0.550000 15.99940
752 OM 752 OM OM1 752 -0.550000 15.99940
753 OM 753 OM OM1 753 -0.550000 15.99940
754 OM 754 OM OM1 754 -0.550000 15.99940
755 OM 755 OM OM1 755 -0.550000 15.99940
756 OM 756 OM OM1 756 -0.550000 15.99940
757 OM 757 OM OM1 757 -0.550000 15.99940
758 OM 758 OM OM1 758 -0.550000 15.99940
759 OM 759 OM OM1 759 -0.550000 15.99940
760 OM 760 OM OM1 760 -0.550000 15.99940
761 OM 761 OM OM1 761 -0.550000 15.99940
762 OM 762 OM OM1 762 -0.550000 15.99940
763 OM 763 OM OM1 763 -0.550000 15.99940
764 OM 764 OM OM1 764 -0.550000 15.99940
765 OM 765 OM OM1 765 -0.550000 15.99940
766 OM 766 OM OM1 766 -0.550000 15.99940
767 OM 767 OM OM1 767 -0.550000 15.99940
768 OM 768 OM OM1 768 -0.550000 15.99940
769 OM 769 OM OM1 769 -0.550000 15.99940
770 OM 770 OM OM1 770 -0.550000 15.99940
771 OM 771 OM OM1 771 -0.550000 15.99940
772 OM 772 OM OM1 772 -0.550000 15.99940
773 OM 773 OM OM1 773 -0.550000 15.99940
774 OM 774 OM OM1 774 -0.550000 15.99940
775 OM 775 OM OM1 775 -0.550000 15.99940
776 OM 776 OM OM1 776 -0.550000 15.99940
777 OM 777 OM OM1 777 -0.550000 15.99940
778 OM 778 OM OM1 778 -0.550000 15.99940
779 OM 779 OM OM1 779 -0.550000 15.99940
780 OM 780 OM OM1 780 -0.550000 15.99940
781 OM 781 OM OM1 781 -0.550000 15.99940
782 OM 782 OM OM1 782 -0.550000 15.99940
783 OM 783 OM OM1 783 -0.550000 15.99940
784 OM 784 OM OM1 784 -0.550000 15.99940
785 OM 785 OM OM1 785 -0.550000 15.99940
786 OM 786 OM OM1 786 -0.550000 15.99940
787 OM 787 OM OM1 787 -0.550000 15.99940
788 OM 788 OM OM1 788 -0.550000 15.99940
789 OM 789 OM OM1 789 -0.550000 15.99940
790 OM 790 OM OM1 790 -0.550000 15.99940
791 OM 791 OM OM1 791 -0.550000 15.99940
792 OM 792 OM OM1 792 -0.550000 15.99940
793 OM 793 OM OM1 793 -0.550000 15.99940
794 OM 794 OM OM1 794 -0.550000 15.99940
795 OM 795 OM OM1 795 -0.550000 15.99940
796 OM 796 OM OM1 796 -0.550000 15.99940
797 OM 797 OM OM1 797 -0.550000 15.99940
798 OM 798 OM OM1 798 -0.550000 15.99940
799 OM 799 OM OM1 799 -0.550000 15.99940
800 OM 800 OM OM1 800 -0.550000 15.99940
801 OM 801 OM OM1 801 -0.550000 15.99940
802 OM 802 OM OM1 802 -0.550000 15.99940
803 OM 803 OM OM1 803 -0.550000 15.99940
804 OM 804 OM OM1 804 -0.550000 15.99940
805 OM 805 OM OM1 805 -0.550000 15.99940
806 OM 806 OM OM1 806 -0.550000 15.99940
807 OM 807 OM OM1 807 -0.550000 15.99940
808 OM 808 OM OM1 808 -0.550000 15.99940
809 OM 809 OM OM1 809 -0.550000 15.99940
810 OM 810 OM OM1 810 -0.550000 15.99940
811 OM 811 OM OM1 811 -0.550000 15.99940
812 OM 812 OM OM1 812 -0.550000 15.99940
813 OM 813 OM OM1 813 -0.550000 15.99940
814 OM 814 OM OM1 814 -0.550000 15.99940
815 OM 815 OM OM1 815 -0.550000 15.99940
816 OM 816 OM OM1 816 -0.550000 15.99940
817 OM 817 OM OM1 817 -0.550000 15.99940
818 OM 818 OM OM1 818 -0.550000 15.99940
819 OM 819 OM OM1 819 -0.550000 15.99940
820 OM 820 OM OM1 820 -0.550000 15.99940
821 OM 821 OM OM1 821 -0.550000 15.99940
822 OM 822 OM OM1 822 -0.550000 15.99940
823 OM 823 OM OM1 823 -0.550000 15.99940
824 OM 824 OM OM1 824 -0.550000 15.99940
825 OM 825 OM OM1 825 -0.550000 15.99940
826 OM 826 OM OM1 826 -0.550000 15.99940
827 OM 827 OM OM1 827 -0.550000 15.99940
828 OM 828 OM OM1 828 -0.550000 15.99940
829 OM 829 OM OM1 829 -0.550000 15.99940
830 OM 830 OM OM1 830 -0.550000 15.99940
831 OM 831 OM OM1 831 -0.550000 15.99940
832 OM 832 OM OM1 832 -0.550000 15.99940
833 OM 833 OM OM1 833 -0.550000 15.99940
834 OM 834 OM OM1 834 -0.550000 15.99940
835 OM 835 OM OM1 835 -0.550000 15.99940
836 OM 836 OM OM1 836 -0.550000 15.99940
837 OM 837 OM OM1 837 -0.550000 15.99940
838 OM 838 OM OM1 838 -0.550000 15.99940
839 OM 839 OM OM1 839 -0.550000 15.99940
840 OM 840 OM OM1 840 -0.550000 15.99940
841 OM 841 OM OM1 841 -0.550000 15.99940
842 OM 842 OM OM1 842 -0.550000 15.99940
843 OM 843 OM OM1 843 -0.550000 15.99940
844 OM 844 OM OM1 844 -0.550000 15.99940
845 OM 845 OM OM1 845 -0.550000 15.99940
846 OM 846 OM OM1 846 -0.550000 15.99940
847 OM 847 OM OM1 847 -0.550000 15.99940
848 OM 848 OM OM1 848 -0.550000 15.99940
849 OM 849 OM OM1 849 -0.550000 15.99940
850 OM 850 OM OM1 850 -0.550000 15.99940
851 OM 851 OM OM1 851 -0.550000 15.99940
852 OM 852 OM OM1 852 -0.550000 15.99940
853 OM 853 OM OM1 853 -0.550000 15.99940
854 OM 854 OM OM1 854 -0.550000 15.99940
855 OM 855 OM OM1 855 -0.550000 15.99940
856 OM 856 OM OM1 856 -0.550000 15.99940
857 OM 857 OM OM1 857 -0.550000 15.99940
858 OM 858 OM OM1 858 -0.550000 15.99940
859 OM 859 OM OM1 859 -0.550000 15.99940
860 OM 860 OM OM1 860 -0.550000 15.99940
861 OM 861 OM OM1 861 -0.550000 15.99940
862 OM 862 OM OM1 862 -0.550000 15.99940
863 OM 863 OM OM1 863 -0.550000 15.99940
864 OM 864 OM OM1 864 -0.550000 15.99940
865 OM 865 OM OM1 865 -0.550000 15.99940
866 OM 866 OM OM1 866 -0.550000 15.99940
867 OM 867 OM OM1 867 -0.550000 15.99940
868 OM 868 OM OM1 868 -0.550000 15.99940
869 OM 869 OM OM1 869 -0.550000 15.99940
870 OM 870 OM OM1 870 -0.550000 15.99940
871 OM 871 OM OM1 871 -0.550000 15.99940
872 OM 872 OM OM1 872 -0.550000 15.99940
873 OM 873 OM OM1 873 -0.550000 15.99940
874 OM 874 OM OM1 874 -0.550000 15.99940
875 OM 875 OM OM1 875 -0.550000 15.99940
876 OM 876 OM OM1 876 -0.550000 15.99940
877 OM 877 OM OM1 877 -0.550000 15.99940
878 OM 878 OM OM1 878 -0.550000 15.99940
879 OM 879 OM OM1 879 -0.550000 15.99940
880 OM 880 OM OM1 880 -0.550000 15.99940
881 OM 881 OM OM1 881 -0.550000 15.99940
882 OM 882 OM OM1 882 -0.550000 15.99940
883 OM 883 OM OM1 883 -0.550000 15.99940
884 OM 884 OM OM1 884 -0.550000 15.99940
885 OM 885 OM OM1 885 -0.550000 15.99940
886 OM 886 OM OM1 886 -0.550000 15.99940
887 OM 887 OM OM1 887 -0.550000 15.99940
888 OM 888 OM OM1 888 -0.550000 15.99940
889 OM 889 OM OM1 889 -0.550000 15.99940
890 OM 890 OM OM1 890 -0.550000 15.99940
891 OM 891 OM OM1 891 -0.550000 15.99940
892 OM 892 OM OM1 892 -0.550000 15.99940
893 OM 893 OM OM1 893 -0.550000 15.99940
894 OM 894 OM OM1 894 -0.550000 15.99940
895 OM 895 OM OM1 895 -0.550000 15.99940
896 OM 896 OM OM1 896 -0.550000 15.99940
897 OM 897 OM OM1 897 -0.550000 15.99940
898 OM 898 OM OM1 898 -0.550000 15.99940
899 OM 899 OM OM1 899 -0.550000 15.99940
900 OM 900 OM OM1 900 -0.550000 15.99940
901 OM 901 OM OM1 901 -0.550000 15.99940
902 OM 902 OM OM1 902 -0.550000 15.99940
903 OM 903 OM OM1 903 -0.550000 15.99940
904 OM 904 OM OM1 904 -0.550000 15.99940
905 OM 905 OM OM1 905 -0.550000 15.99940
906 OM 906 OM OM1 906 -0.550000 15.99940
907 OM 907 OM OM1 907 -0.550000 15.99940
908 OM 908 OM OM1 908 -0.550000 15.99940
909 OM 909 OM OM1 909 -0.550000 15.99940
910 OM 910 OM OM1 910 -0.550000 15.99940
911 OM 911 OM OM1 911 -0.550000 15.99940
912 OM 912 OM OM1 912 -0.550000 15.99940
913 OM 913 OM OM1 913 -0.550000 15.99940
914 OM 914 OM OM1 914 -0.550000 15.99940
915 OM 915 OM OM1 915 -0.550000 15.99940
916 OM 916 OM OM1 916 -0.550000 15.99940
917 OM 917 OM OM1 917 -0.550000 15.99940
918 OM 918 OM OM1 918 -0.550000 15.99940
919 OM 919 OM OM1 919 -0.550000 15.99940
920 OM 920 OM OM1 920 -0.550000 15.99940
921 OM 921 OM OM1 921 -0.550000 15.99940
922 OM 922 OM OM1 922 -0.550000 15.99940
923 OM 923 OM OM1 923 -0.550000 15.99940
924 OM 924 OM OM1 924 -0.550000 15.99940
925 OM 925 OM OM1 925 -0.550000 15.99940
926 OM 926 OM OM1 926 -0.550000 15.99940
927 OM 927 OM OM1 927 -0.550000 15.99940
928 OM 928 OM OM1 928 -0.550000 15.99940
929 OM 929 OM OM1 929 -0.550000 15.99940
930 OM 930 OM OM1 930 -0.550000 15.99940
931 OM 931 OM OM1 931 -0.550000 15.99940
932 OM 932 OM OM1 932 -0.550000 15.99940
933 OM 933 OM OM1 933 -0.550000 15.99940
934 OM 934 OM OM1 934 -0.550000 15.99940
935 OM 935 OM OM1 935 -0.550000 15.99940
936 OM 936 OM OM1 936 -0.550000 15.99940
937 OM 937 OM OM1 937 -0.550000 15.99940
938 OM 938 OM OM1 938 -0.550000 15.99940
939 OM 939 OM OM1 939 -0.550000 15.99940
940 OM 940 OM OM1 940 -0.550000 15.99940
941 OM 941 OM OM1 941 -0.550000 15.99940
942 OM 942 OM OM1 942 -0.550000 15.99940
943 OM 943 OM OM1 943 -0.550000 15.99940
944 OM 944 OM OM1 944 -0.550000 15.99940
945 OM 945 OM OM1 945 -0.550000 15.99940
946 OM 946 OM OM1 946 -0.550000 15.99940
947 OM 947 OM OM1 947 -0.550000 15.99940
948 OM 948 OM OM1 948 -0.550000 15.99940
949 OM 949 OM OM1 949 -0.550000 15.99940
950 OM 950 OM OM1 950 -0.550000 15.99940
951 OM 951 OM OM1 951 -0.550000 15.99940
952 OM 952 OM OM1 952 -0.550000 15.99940
953 OM 953 OM OM1 953 -0.550000 15.99940
954 OM 954 OM OM1 954 -0.550000 15.99940
955 OM 955 OM OM1 955 -0.550000 15.99940
956 OM 956 OM OM1 956 -0.550000 15.99940
957 OM 957 OM OM1 957 -0.550000 15.99940
958 OM 958 OM OM1 958 -0.550000 15.99940
959 OM 959 OM OM1 959 -0.550000 15.99940
960 OM 960 OM OM1 960 -0.550000 15.99940
961 OM 961 OM OM1 961 -0.550000 15.99940
962 OM 962 OM OM1 962 -0.550000 15.99940
963 OM 963 OM OM1 963 -0.550000 15.99940
964 OM 964 OM OM1 964 -0.550000 15.99940
965 OM 965 OM OM1 965 -0.550000 15.99940
966 OM 966 OM OM1 966 -0.550000 15.99940
967 OM 967 OM OM1 967 -0.550000 15.99940
968 OM 968 OM OM1 968 -0.550000 15.99940
969 OM 969 OM OM1 969 -0.550000 15.99940
970 OM 970 OM OM1 970 -0.550000 15.99940
971 OM 971 OM OM1 971 -0.550000 15.99940
972 OM 972 OM OM1 972 -0.550000 15.99940
973 OM 973 OM OM1 973 -0.550000 15.99940
974 OM 974 OM OM1 974 -0.550000 15.99940
975 OM 975 OM OM1 975 -0.550000 15.99940
976 OM 976 OM OM1 976 -0.550000 15.99940
977 OM 977 OM OM1 977 -0.550000 15.99940
978 OM 978 OM OM1 978 -0.550000 15.99940
979 OM 979 OM OM1 979 -0.550000 15.99940
980 OM 980 OM OM1 980 -0.550000 15.99940
981 OM 981 OM OM1 981 -0.550000 15.99940
982 OM 982 OM OM1 982 -0.550000 15.99940
983 OM 983 OM OM1 983 -0.550000 15.99940
984 OM 984 OM OM1 984 -0.550000 15.99940
985 OM 985 OM OM1 985 -0.550000 15.99940
986 OM 986 OM OM1 986 -0.550000 15.99940
987 OM 987 OM OM1 987 -0.550000 15.99940
988 OM 988 OM OM1 988 -0.550000 15.99940
989 OM 989 OM OM1 989 -0.550000 15.99940
990 OM 990 OM OM1 990 -0.550000 15.99940
991 OM 991 OM OM1 991 -0.550000 15.99940
992 OM 992 OM OM1 992 -0.550000 15.99940
993 OM 993 OM OM1 993 -0.550000 15.99940
994 OM 994 OM OM1 994 -0.550000 15.99940
995 OM 995 OM OM1 995 -0.550000 15.99940
996 OM 996 OM OM1 996 -0.550000 15.99940
997 OM 997 OM OM1 997 -0.550000 15.99940
998 OM 998 OM OM1 998 -0.550000 15.99940
999 OM 999 OM OM1 999 -0.550000 15.99940
1000 OM 1000 OM OM1 1000 -0.550000 15.99940
1001 OM 1001 OM OM1 1001 -0.550000 15.99940
1002 OM 1002 OM OM1 1002 -0.550000 15.99940
1003 OM 1003 OM OM1 1003 -0.550000 15.99940
1004 OM 1004 OM OM1 1004 -0.550000 15.99940
1005 OM 1005 OM OM1 1005 -0.550000 15.99940
1006 OM 1006 OM OM1 1006 -0.550000 15.99940
1007 OM 1007 OM OM1 1007 -0.550000 15.99940
1008 OM 1008 OM OM1 1008 -0.550000 15.99940
1009 OM 1009 OM OM1 1009 -0.550000 15.99940
1010 OM 1010 OM OM1 1010 -0.550000 15.99940
1011 OM 1011 OM OM1 1011 -0.550000 15.99940
1012 OM 1012 OM OM1 1012 -0.550000 15.99940
1013 OM 1013 OM OM1 1013 -0.550000 15.99940
1014 OM 1014 OM OM1 1014 -0.550000 15.99940
1015 OM 1015 OM OM1 1015 -0.550000 15.99940
1016 OM 1016 OM OM1 1016 -0.550000 15.99940
1017 OM 1017 OM OM1 1017 -0.550000 15.99940
1018 OM 1018 OM OM1 1018 -0.550000 15.99940
1019 OM 1019 OM OM1 1019 -0.550000 15.99940
1020 OM 1020 OM OM1 1020 -0.550000 15.99940
1021 OM 1021 OM OM1 1021 -0.550000 15.99940
1022 OM 1022 OM OM1 1022 -0.550000 15.99940
1023 OM 1023 OM OM1 1023 -0.550000 15.99940
1024 OM 1024 OM OM1 1024 -0.550000 15.99940
1025 OM 1025 OM OM1 1025 -0.550000 15.99940
1026 OM 1026 OM OM1 1026 -0.550000 15.99940
1027 OM 1027 OM OM1 1027 -0.550000 15.99940
1028 OM 1028 OM OM1 1028 -0.550000 15.99940
1029 OM 1029 OM OM1 1029 -0.550000 15.99940
1030 OM 1030 OM OM1 1030 -0.550000 15.99940
1031 OM 1031 OM OM1 1031 -0.550000 15.99940
1032 OM 1032 OM OM1 1032 -0.550000 15.99940
1033 OM 1033 OM OM1 1033 -0.550000 15.99940
1034 OM 1034 OM OM1 1034 -0.550000 15.99940
1035 OM 1035 OM OM1 1035 -0.550000 15.99940
1036 OM 1036 OM OM1 1036 -0.550000 15.99940
1037 OM 1037 OM OM1 1037 -0.550000 15.99940
1038 OM 1038 OM OM1 1038 -0.550000 15.99940
1039 OM 1039 OM OM1 1039 -0.550000 15.99940
1040 OM 1040 OM OM1 1040 -0.550000 15.99940
1041 OM 1041 OM OM1 1041 -0.550000 15.99940
1042 OM 1042 OM OM1 1042 -0.550000 15.99940
1043 OM 1043 OM OM1 1043 -0.550000 15.99940
1044 OM 1044 OM OM1 1044 -0.550000 15.99940
1045 OM 1045 OM OM1 1045 -0.550000 15.99940
1046 OM 1046 OM OM1 1046 -0.550000 15.99940
1047 OM 1047 OM OM1 1047 -0.550000 15.99940
1048 OM 1048 OM OM1 1048 -0.550000 15.99940
1049 OM 1049 OM OM1 1049 -0.550000 15.99940
1050 OM 1050 OM OM1 1050 -0.550000 15.99940
1051 OM 1051 OM OM1 1051 -0.550000 15.99940
1052 OM 1052 OM OM1 1052 -0.550000 15.99940
1053 OM 1053 OM OM1 1053 -0.550000 15.99940
1054 OM 1054 OM OM1 1054 -0.550000 15.99940
1055 OM 1055 OM OM1 1055 -0.550000 15.99940
1056 OM 1056 OM OM1 1056 -0.550000 15.99940
1057 OM 1057 OM OM1 1057 -0.550000 15.99940
1058 OM 1058 OM OM1 1058 -0.550000 15.99940
1059 OM 1059 OM OM1 1059 -0.550000 15.99940
1060 OM 1060 OM OM1 1060 -0.550000 15.99940
1061 OM 1061 OM OM1 1061 -0.550000 15.99940
1062 OM 1062 OM OM1 1062 -0.550000 15.99940
1063 OM 1063 OM OM1 1063 -0.550000 15.99940
1064 OM 1064 OM OM1 1064 -0.550000 15.99940
1065 OM 1065 OM OM1 1065 -0.550000 15.99940
1066 OM 1066 OM OM1 1066 -0.550000 15.99940
1067 OM 1067 OM OM1 1067 -0.550000 15.99940
1068 OM 1068 OM OM1 1068 -0.550000 15.99940
1069 OM 1069 OM OM1 1069 -0.550000 15.99940
1070 OM 1070 OM OM1 1070 -0.550000 15.99940
1071 OM 1071 OM OM1 1071 -0.550000 15.99940
1072 OM 1072 OM OM1 1072 -0.550000 15.99940
1073 OM 1073 OM OM1 1073 -0.550000 15.99940
1074 OM 1074 OM OM1 1074 -0.550000 15.99940
1075 OM 1075 OM OM1 1075 -0.550000 15.99940
1076 OM 1076 OM OM1 1076 -0.550000 15.99940
1077 OM 1077 OM OM1 1077 -0.550000 15.99940
1078 OM 1078 OM OM1 1078 -0.550000 15.99940
1079 OM 1079 OM OM1 1079 -0.550000 15.99940
1080 OM 1080 OM OM1 1080 -0.550000 15.99940
1081 OM 1081 OM OM1 1081 -0.550000 15.99940
1082 OM 1082 OM OM1 1082 -0.550000 15.99940
1083 OM 1083 OM OM1 1083 -0.550000 15.99940
1084 OM 1084 OM OM1 1084 -0.550000 15.99940
1085 OM 1085 OM OM1 1085 -0.550000 15.99940
1086 OM 1086 OM OM1 1086 -0.550000 15.99940
1087 OM 1087 OM OM1 1087 -0.550000 15.99940
1088 OM 1088 OM OM1 1088 -0.550000 15.99940
1089 OM 1089 OM OM1 1089 -0.550000 15.99940
1090 OM 1090 OM OM1 1090 -0.550000 15.99940
1091 OM 1091 OM OM1 1091 -0.550000 15.99940
1092 OM 1092 OM OM1 1092 -0.550000 15.99940
1093 OM 1093 OM OM1 1093 -0.550000 15.99940
1094 OM 1094 OM OM1 1094 -0.550000 15.99940
1095 OM 1095 OM OM1 1095 -0.550000 15.99940
1096 OM 1096 OM OM1 1096 -0.550000 15.99940
1097 OM 1097 OM OM1 1097 -0.550000 15.99940
1098 OM 1098 OM OM1 1098 -0.550000 15.99940
1099 OM 1099 OM OM1 1099 -0.550000 15.99940
1100 OM 1100 OM OM1 1100 -0.550000 15.99940
1101 OM 1101 OM OM1 1101 -0.550000 15.99940
1102 OM 1102 OM OM1 1102 -0.550000 15.99940
1103 OM 1103 OM OM1 1103 -0.550000 15.99940
1104 OM 1104 OM OM1 1104 -0.550000 15.99940
1105 OM 1105 OM OM1 1105 -0.550000 15.99940
1106 OM 1106 OM OM1 1106 -0.550000 15.99940
1107 OM 1107 OM OM1 1107 -0.550000 15.99940
1108 OM 1108 OM OM1 1108 -0.550000 15.99940
1109 OM 1109 OM OM1 1109 -0.550000 15.99940
1110 OM 1110 OM OM1 1110 -0.550000 15.99940
1111 OM 1111 OM OM1 1111 -0.550000 15.99940
1112 OM 1112 OM OM1 1112 -0.550000 15.99940
1113 OM 1113 OM OM1 1113 -0.550000 15.99940
1114 OM 1114 OM OM1 1114 -0.550000 15.99940
1115 OM 1115 OM OM1 1115 -0.550000 15.99940
1116 OM 1116 OM OM1 1116 -0.550000 15.99940
1117 OM 1117 OM OM1 1117 -0.550000 15.99940
1118 OM 1118 OM OM1 1118 -0.550000 15.99940
1119 OM 1119 OM OM1 1119 -0.550000 15.99940
1120 OM 1120 OM OM1 1120 -0.550000 15.99940
1121 OM 1121 OM OM1 1121 -0.550000 15.99940
1122 OM 1122 OM OM1 1122 -0.550000 15.99940
1123 OM 1123 OM OM1 1123 -0.550000 15.99940
1124 OM 1124 OM OM1 1124 -0.550000 15.99940
1125 OM 1125 OM OM1 1125 -0.550000 15.99940
1126 OM 1126 OM OM1 1126 -0.550000 15.99940
1127 OM 1127 OM OM1 1127 -0.550000 15.99940
1128 OM 1128 OM OM1 1128 -0.550000 15.99940
1129 OM 1129 OM OM1 1129 -0.550000 15.99940
1130 OM 1130 OM OM1 1130 -0.550000 15.99940
1131 OM 1131 OM OM1 1131 -0.550000 15.99940
1132 OM 1132 OM OM1 1132 -0.550000 15.99940
1133 OM 1133 OM OM1 1133 -0.550000 15.99940
1134 OM 1134 OM OM1 1134 -0.550000 15.99940
1135 OM 1135 OM OM1 1135 -0.550000 15.99940
1136 OM 1136 OM OM1 1136 -0.550000 15.99940
1137 OM 1137 OM OM1 1137 -0.550000 15.99940
1138 OM 1138 OM OM1 1138 -0.550000 15.99940
1139 OM 1139 OM OM1 1139 -0.550000 15.99940
1140 OM 1140 OM OM1 1140 -0.550000 15.99940
1141 OM 1141 OM OM1 1141 -0.550000 15.99940
1142 OM 1142 OM OM1 1142 -0.550000 15.99940
1143 OM 1143 OM OM1 1143 -0.550000 15.99940
1144 OM 1144 OM OM1 1144 -0.550000 15.99940
1145 OM 1145 OM OM1 1145 -0.550000 15.99940
1146 OM 1146 OM OM1 1146 -0.550000 15.99940
1147 OM 1147 OM OM1 1147 -0.550000 15.99940
1148 OM 1148 OM OM1 1148 -0.550000 15.99940
1149 OM 1149 OM OM1 1149 -0.550000 15.99940
1150 OM 1150 OM OM1 1150 -0.550000 15.99940
1151 OM 1151 OM OM1 1151 -0.550000 15.99940
1152 OM 1152 OM OM1 1152 -0.550000 15.99940
1153 OM 1153 OM OM1 1153 -0.550000 15.99940
1154 OM 1154 OM OM1 1154 -0.550000 15.99940
1155 OM 1155 OM OM1 1155 -0.550000 15.99940
1156 OM 1156 OM OM1 1156 -0.550000 15.99940
1157 OM 1157 OM OM1 1157 -0.550000 15.99940
1158 OM 1158 OM OM1 1158 -0.550000 15.99940
1159 OM 1159 OM OM1 1159 -0.550000 15.99940
1160 OM 1160 OM OM1 1160 -0.550000 15.99940
1161 OM 1161 OM OM1 1161 -0.550000 15.99940
1162 OM 1162 OM OM1 1162 -0.550000 15.99940
1163 OM 1163 OM OM1 1163 -0.550000 15.99940
1164 OM 1164 OM OM1 1164 -0.550000 15.99940
1165 OM 1165 OM OM1 1165 -0.550000 15.99940
1166 OM 1166 OM OM1 1166 -0.550000 15.99940
1167 OM 1167 OM OM1 1167 -0.550000 15.99940
1168 OM 1168 OM OM1 1168 -0.550000 15.99940
1169 OM 1169 OM OM1 1169 -0.550000 15.99940
1170 OM 1170 OM OM1 1170 -0.550000 15.99940
1171 OM 1171 OM OM1 1171 -0.550000 15.99940
1172 OM 1172 OM OM1 1172 -0.550000 15.99940
1173 OM 1173 OM OM1 1173 -0.550000 15.99940
1174 OM 1174 OM OM1 1174 -0.550000 15.99940
1175 OM 1175 OM OM1 1175 -0.550000 15.99940
1176 OM 1176 OM OM1 1176 -0.550000 15.99940
1177 OM 1177 OM OM1 1177 -0.550000 15.99940
1178 OM 1178 OM OM1 1178 -0.550000 15.99940
1179 OM 1179 OM OM1 1179 -0.550000 15.99940
1180 OM 1180 OM OM1 1180 -0.550000 15.99940
1181 OM 1181 OM OM1 1181 -0.550000 15.99940
1182 OM 1182 OM OM1 1182 -0.550000 15.99940
1183 OM 1183 OM OM1 1183 -0.550000 15.99940
1184 OM 1184 OM OM1 1184 -0.550000 15.99940
1185 OM 1185 OM OM1 1185 -0.550000 15.99940
1186 OM 1186 OM OM1 1186 -0.550000 15.99940
1187 OM 1187 OM OM1 1187 -0.550000 15.99940
1188 OM 1188 OM OM1 1188 -0.550000 15.99940
1189 OM 1189 OM OM1 1189 -0.550000 15.99940
1190 OM 1190 OM OM1 1190 -0.550000 15.99940
1191 OM 1191 OM OM1 1191 -0.550000 15.99940
1192 OM 1192 OM OM1 1192 -0.550000 15.99940
1193 OM 1193 OM OM1 1193 -0.550000 15.99940
1194 OM 1194 OM OM1 1194 -0.550000 15.99940
1195 OM 1195 OM OM1 1195 -0.550000 15.99940
1196 OM 1196 OM OM1 1196 -0.550000 15.99940
1197 OM 1197 OM OM1 1197 -0.550000 15.99940
1198 OM 1198 OM OM1 1198 -0.550000 15.99940
1199 OM 1199 OM OM1 1199 -0.550000 15.99940
1200 OM 1200 OM OM1 1200 -0.550000 15.99940
1201 OM 1201 OM OM1 1201 -0.550000 15.99940
1202 OM 1202 OM OM1 1202 -0.550000 15.99940
1203 OM 1203 OM OM1 1203 -0.550000 15.99940
1204 OM 1204 OM OM1 1204 -0.550000 15.99940
1205 OM 1205 OM OM1 1205 -0.550000 15.99940
1206 OM 1206 OM OM1 1206 -0.550000 15.99940
1207 OM 1207 OM OM1 1207 -0.550000 15.99940
1208 OM 1208 OM OM1 1208 -0.550000 15.99940
1209 OM 1209 OM OM1 1209 -0.550000 15.99940
1210 OM 1210 OM OM1 1210 -0.550000 15.99940
1211 OM 1211 OM OM1 1211 -0.550000 15.99940
1212 OM 1212 OM OM1 1212 -0.550000 15.99940
1213 OM 1213 OM OM1 1213 -0.550000 15.99940
1214 OM 1214 OM OM1 1214 -0.550000 15.99940
1215 OM 1215 OM OM1 1215 -0.550000 15.99940
1216 OM 1216 OM OM1 1216 -0.550000 15.99940
1217 OM 1217 OM OM1 1217 -0.550000 15.99940
1218 OM 1218 OM OM1 1218 -0.550000 15.99940
1219 OM 1219 OM OM1 1219 -0.550000 15.99940
1220 OM 1220 OM OM1 1220 -0.550000 15.99940
1221 OM 1221 OM OM1 1221 -0.550000 15.99940
1222 OM 1222 OM OM1 1222 -0.550000 15.99940
1223 OM 1223 OM OM1 1223 -0.550000 15.99940
1224 OM 1224 OM OM1 1224 -0.550000 15.99940
1225 OM 1225 OM OM1 1225 -0.550000 15.99940
1226 OM 1226 OM OM1 1226 -0.550000 15.99940
1227 OM 1227 OM OM1 1227 -0.550000 15.99940
1228 OM 1228 OM OM1 1228 -0.550000 15.99940
1229 OM 1229 OM OM1 1229 -0.550000 15.99940
1230 OM 1230 OM OM1 1230 -0.550000 15.99940
1231 OM 1231 OM OM1 1231 -0.550000 15.99940
1232 OM 1232 OM OM1 1232 -0.550000 15.99940
1233 OM 1233 OM OM1 1233 -0.550000 15.99940
1234 OM 1234 OM OM1 1234 -0.550000 15.99940
1235 OM 1235 OM OM1 1235 -0.550000 15.99940
1236 OM 1236 OM OM1 1236 -0.550000 15.99940
1237 OM 1237 OM OM1 1237 -0.550000 15.99940
1238 OM 1238 OM OM1 1238 -0.550000 15.99940
1239 OM 1239 OM OM1 1239 -0.550000 15.99940
1240 OM 1240 OM OM1 1240 -0.550000 15.99940
1241 OM 1241 OM OM1 1241 -0.550000 15.99940
1242 OM 1242 OM OM1 1242 -0.550000 15.99940
1243 OM 1243 OM OM1 1243 -0.550000 15.99940
1244 OM 1244 OM OM1 1244 -0.550000 15.99940
1245 OM 1245 OM OM1 1245 -0.550000 15.99940
1246 OM 1246 OM OM1 1246 -0.550000 15.99940
1247 OM 1247 OM OM1 1247 -0.550000 15.99940
1248 OM 1248 OM OM1 1248 -0.550000 15.99940
1249 OM 1249 OM OM1 1249 -0.550000 15.99940
1250 OM 1250 OM OM1 1250 -0.550000 15.99940
1251 OM 1251 OM OM1 1251 -0.550000 15.99940
1252 OM 1252 OM OM1 1252 -0.550000 15.99940
1253 OM 1253 OM OM1 1253 -0.550000 15.99940
1254 OM 1254 OM OM1 1254 -0.550000 15.99940
1255 OM 1255 OM OM1 1255 -0.550000 15.99940
1256 OM 1256 OM OM1 1256 -0.550000 15.99940
1257 OM 1257 OM OM1 1257 -0.550000 15.99940
1258 OM 1258 OM OM1 1258 -0.550000 15.99940
1259 OM 1259 OM OM1 1259 -0.550000 15.99940
1260 OM 1260 OM OM1 1260 -0.550000 15.99940
1261 OM 1261 OM OM1 1261 -0.550000 15.99940
1262 OM 1262 OM OM1 1262 -0.550000 15.99940
1263 OM 1263 OM OM1 1263 -0.550000 15.99940
1264 OM 1264 OM OM1 1264 -0.550000 15.99940
1265 OM 1265 OM OM1 1265 -0.550000 15.99940
1266 OM 1266 OM OM1 1266 -0.550000 15.99940
1267 OM 1267 OM OM1 1267 -0.550000 15.99940
1268 OM 1268 OM OM1 1268 -0.550000 15.99940
1269 OM 1269 OM OM1 1269 -0.550000 15.99940
1270 OM 1270 OM OM1 1270 -0.550000 15.99940
1271 OM 1271 OM OM1 1271 -0.550000 15.99940
1272 OM 1272 OM OM1 1272 -0.550000 15.99940
1273 OM 1273 OM OM1 1273 -0.550000 15.99940
1274 OM 1274 OM OM1 1274 -0.550000 15.99940
1275 OM 1275 OM OM1 1275 -0.550000 15.99940
1276 OM 1276 OM OM1 1276 -0.550000 15.99940
1277 OM 1277 OM OM1 1277 -0.550000 15.99940
1278 OM 1278 OM OM1 1278 -0.550000 15.99940
1279 OM 1279 OM OM1 1279 -0.550000 15.99940
1280 OM 1280 OM OM1 1280 -0.550000 15.99940
1281 OM 1281 OM OM1 1281 -0.550000 15.99940
1282 OM 1282 OM OM1 1282 -0.550000 15.99940
1283 OM 1283 OM OM1 1283 -0.550000 15.99940
1284 OM 1284 OM OM1 1284 -0.550000 15.99940
1285 OM 1285 OM OM1 1285 -0.550000 15.99940
1286 OM 1286 OM OM1 1286 -0.550000 15.99940
1287 OM 1287 OM OM1 1287 -0.550000 15.99940
1288 OM 1288 OM OM1 1288 -0.550000 15.99940
1289 OM 1289 OM OM1 1289 -0.550000 15.99940
1290 OM 1290 OM OM1 1290 -0.550000 15.99940
1291 OM 1291 OM OM1 1291 -0.550000 15.99940
1292 OM 1292 OM OM1 1292 -0.550000 15.99940
1293 OM 1293 OM OM1 1293 -0.550000 15.99940
1294 OM 1294 OM OM1 1294 -0.550000 15.99940
1295 OM 1295 OM OM1 1295 -0.550000 15.99940
1296 OM 1296 OM OM1 1296 -0.550000 15.99940
1297 OM 1297 OM OM1 1297 -0.550000 15.99940
1298 OM 1298 OM OM1 1298 -0.550000 15.99940
1299 OM 1299 OM OM1 1299 -0.550000 15.99940
1300 OM 1300 OM OM1 1300 -0.550000 15.99940
1301 OM 1301 OM OM1 1301 -0.550000 15.99940
1302 OM 1302 OM OM1 1302 -0.550000 15.99940
1303 OM 1303 OM OM1 1303 -0.550000 15.99940
1304 OM 1304 OM OM1 1304 -0.550000 15.99940
1305 OM 1305 OM OM1 1305 -0.550000 15.99940
1306 OM 1306 OM OM1 1306 -0.550000 15.99940
1307 OM 1307 OM OM1 1307 -0.550000 15.99940
1308 OM 1308 OM OM1 1308 -0.550000 15.99940
1309 OM 1309 OM OM1 1309 -0.550000 15.99940
1310 OM 1310 OM OM1 1310 -0.550000 15.99940
1311 OM 1311 OM OM1 1311 -0.550000 15.99940
1312 OM 1312 OM OM1 1312 -0.550000 15.99940
1313 OM 1313 OM OM1 1313 -0.550000 15.99940
1314 OM 1314 OM OM1 1314 -0.550000 15.99940
1315 OM 1315 OM OM1 1315 -0.550000 15.99940
1316 OM 1316 OM OM1 1316 -0.550000 15.99940
1317 OM 1317 OM OM1 1317 -0.550000 15.99940
1318 OM 1318 OM OM1 1318 -0.550000 15.99940
1319 OM 1319 OM OM1 1319 -0.550000 15.99940
1320 OM 1320 OM OM1 1320 -0.550000 15.99940
1321 OM 1321 OM OM1 1321 -0.550000 15.99940
1322 OM 1322 OM OM1 1322 -0.550000 15.99940
1323 OM 1323 OM OM1 1323 -0.550000 15.99940
1324 OM 1324 OM OM1 1324 -0.550000 15.99940
1325 OM 1325 OM OM1 1325 -0.550000 15.99940
1326 OM 1326 OM OM1 1326 -0.550000 15.99940
1327 OM 1327 OM OM1 1327 -0.550000 15.99940
1328 OM 1328 OM OM1 1328 -0.550000 15.99940
1329 OM 1329 OM OM1 1329 -0.550000 15.99940
1330 OM 1330 OM OM1 1330 -0.550000 15.99940
1331 OM 1331 OM OM1 1331 -0.550000 15.99940
1332 OM 1332 OM OM1 1332 -0.550000 15.99940
1333 OM 1333 OM OM1 1333 -0.550000 15.99940
1334 OM 1334 OM OM1 1334 -0.550000 15.99940
1335 OM 1335 OM OM1 1335 -0.550000 15.99940
1336 OM 1336 OM OM1 1336 -0.550000 15.99940
1337 OM 1337 OM OM1 1337 -0.550000 15.99940
1338 OM 1338 OM OM1 1338 -0.550000 15.99940
1339 OM 1339 OM OM1 1339 -0.550000 15.99940
1340 OM 1340 OM OM1 1340 -0.550000 15.99940
1341 OM 1341 OM OM1 1341 -0.550000 15.99940
1342 OM 1342 OM OM1 1342 -0.550000 15.99940
1343 OM 1343 OM OM1 1343 -0.550000 15.99940
1344 OM 1344 OM OM1 1344 -0.550000 15.99940
1345 OM 1345 OM OM1 1345 -0.550000 15.99940
1346 OM 1346 OM OM1 1346 -0.550000 15.99940
1347 OM 1347 OM OM1 1347 -0.550000 15.99940
1348 OM 1348 OM OM1 1348 -0.550000 15.99940
1349 OM 1349 OM OM1 1349 -0.550000 15.99940
1350 OM 1350 OM OM1 1350 -0.550000 15.99940
1351 OM 1351 OM OM1 1351 -0.550000 15.99940
1352 OM 1352 OM OM1 1352 -0.550000 15.99940
1353 OM 1353 OM OM1 1353 -0.550000 15.99940
1354 OM 1354 OM OM1 1354 -0.550000 15.99940
1355 OM 1355 OM OM1 1355 -0.550000 15.99940
1356 OM 1356 OM OM1 1356 -0.550000 15.99940
1357 OM 1357 OM OM1 1357 -0.550000 15.99940
1358 OM 1358 OM OM1 1358 -0.550000 15.99940
1359 OM 1359 OM OM1 1359 -0.550000 15.99940
1360 OM 1360 OM OM1 1360 -0.550000 15.99940
1361 OM 1361 OM OM1 1361 -0.550000 15.99940
1362 OM 1362 OM OM1 1362 -0.550000 15.99940
1363 OM 1363 OM OM1 1363 -0.550000 15.99940
1364 OM 1364 OM OM1 1364 -0.550000 15.99940
1365 OM 1365 OM OM1 1365 -0.550000 15.99940
1366 OM 1366 OM OM1 1366 -0.550000 15.99940
1367 OM 1367 OM OM1 1367 -0.550000 15.99940
1368 OM 1368 OM OM1 1368 -0.550000 15.99940
1369 OM 1369 OM OM1 1369 -0.550000 15.99940
1370 OM 1370 OM OM1 1370 -0.550000 15.99940
1371 OM 1371 OM OM1 1371 -0.550000 15.99940
1372 OM 1372 OM OM1 1372 -0.550000 15.99940
1373 OM 1373 OM OM1 1373 -0.550000 15.99940
1374 OM 1374 OM OM1 1374 -0.550000 15.99940
1375 OM 1375 OM OM1 1375 -0.550000 15.99940
1376 OM 1376 OM OM1 1376 -0.550000 15.99940
1377 OM 1377 OM OM1 1377 -0.550000 15.99940
1378 OM 1378 OM OM1 1378 -0.550000 15.99940
1379 OM 1379 OM OM1 1379 -0.550000 15.99940
1380 OM 1380 OM OM1 1380 -0.550000 15.99940
1381 OM 1381 OM OM1 1381 -0.550000 15.99940
1382 OM 1382 OM OM1 1382 -0.550000 15.99940
1383 OM 1383 OM OM1 1383 -0.550000 15.99940
1384 OM 1384 OM OM1 1384 -0.550000 15.99940
1385 OM 1385 OM OM1 1385 -0.550000 15.99940
1386 OM 1386 OM OM1 1386 -0.550000 15.99940
1387 OM 1387 OM OM1 1387 -0.550000 15.99940
1388 OM 1388 OM OM1 1388 -0.550000 15.99940
1389 OM 1389 OM OM1 1389 -0.550000 15.99940
1390 OM 1390 OM OM1 1390 -0.550000 15.99940
1391 OM 1391 OM OM1 1391 -0.550000 15.99940
1392 OM 1392 OM OM1 1392 -0.550000 15.99940
1393 OM 1393 OM OM1 1393 -0.550000 15.99940
1394 OM 1394 OM OM1 1394 -0.550000 15.99940
1395 OM 1395 OM OM1 1395 -0.550000 15.99940
1396 OM 1396 OM OM1 1396 -0.550000 15.99940
1397 OM 1397 OM OM1 1397 -0.550000 15.99940
1398 OM 1398 OM OM1 1398 -0.550000 15.99940
1399 OM 1399 OM OM1 1399 -0.550000 15.99940
1400 OM 1400 OM OM1 1400 -0.550000 15.99940
1401 OM 1401 OM OM1 1401 -0.550000 15.99940
1402 OM 1402 OM OM1 1402 -0.550000 15.99940
1403 OM 1403 OM OM1 1403 -0.550000 15.99940
1404 OM 1404 OM OM1 1404 -0.550000 15.99940
1405 OM 1405 OM OM1 1405 -0.550000 15.99940
1406 OM 1406 OM OM1 1406 -0.550000 15.99940
1407 OM 1407 OM OM1 1407 -0.550000 15.99940
1408 OM 1408 OM OM1 1408 -0.550000 15.99940
1409 OM 1409 OM OM1 1409 -0.550000 15.99940
1410 OM 1410 OM OM1 1410 -0.550000 15.99940
1411 OM 1411 OM OM1 1411 -0.550000 15.99940
1412 OM 1412 OM OM1 1412 -0.550000 15.99940
1413 OM 1413 OM OM1 1413 -0.550000 15.99940
1414 OM 1414 OM OM1 1414 -0.550000 15.99940
1415 OM 1415 OM OM1 1415 -0.550000 15.99940
1416 OM 1416 OM OM1 1416 -0.550000 15.99940
1417 OM 1417 OM OM1 1417 -0.550000 15.99940
1418 OM 1418 OM OM1 1418 -0.550000 15.99940
1419 OM 1419 OM OM1 1419 -0.550000 15.99940
1420 OM 1420 OM OM1 1420 -0.550000 15.99940
1421 OM 1421 OM OM1 1421 -0.550000 15.99940
1422 OM 1422 OM OM1 1422 -0.550000 15.99940
1423 OM 1423 OM OM1 1423 -0.550000 15.99940
1424 OM 1424 OM OM1 1424 -0.550000 15.99940
1425 OM 1425 OM OM1 1425 -0.550000 15.99940
1426 OM 1426 OM OM1 1426 -0.550000 15.99940
1427 OM 1427 OM OM1 1427 -0.550000 15.99940
1428 OM 1428 OM OM1 1428 -0.550000 15.99940
1429 OM 1429 OM OM1 1429 -0.550000 15.99940
1430 OM 1430 OM OM1 1430 -0.550000 15.99940
1431 OM 1431 OM OM1 1431 -0.550000 15.99940
1432 OM 1432 OM OM1 1432 -0.550000 15.99940
1433 OM 1433 OM OM1 1433 -0.550000 15.99940
1434 OM 1434 OM OM1 1434 -0.550000 15.99940
1435 OM 1435 OM OM1 1435 -0.550000 15.99940
1436 OM 1436 OM OM1 1436 -0.550000 15.99940
1437 OM 1437 OM OM1 1437 -0.550000 15.99940
1438 OM 1438 OM OM1 1438 -0.550000 15.99940
1439 OM 1439 OM OM1 1439 -0.550000 15.99940
1440 OM 1440 OM OM1 1440 -0.550000 15.99940
1441 OM 1441 OM OM1 1441 -0.550000 15.99940
1442 OM 1442 OM OM1 1442 -0.550000 15.99940
1443 OM 1443 OM OM1 1443 -0.550000 15.99940
1444 OM 1444 OM OM1 1444 -0.550000 15.99940
1445 OM 1445 OM OM1 1445 -0.550000 15.99940
1446 OM 1446 OM OM1 1446 -0.550000 15.99940
1447 OM 1447 OM OM1 1447 -0.550000 15.99940
1448 OM 1448 OM OM1 1448 -0.550000 15.99940
1449 OM 1449 OM OM1 1449 -0.550000 15.99940
1450 OM 1450 OM OM1 1450 -0.550000 15.99940
1451 OM 1451 OM OM1 1451 -0.550000 15.99940
1452 OM 1452 OM OM1 1452 -0.550000 15.99940
1453 OM 1453 OM OM1 1453 -0.550000 15.99940
1454 OM 1454 OM OM1 1454 -0.550000 15.99940
1455 OM 1455 OM OM1 1455 -0.550000 15.99940
1456 OM 1456 OM OM1 1456 -0.550000 15.99940
1457 OM 1457 OM OM1 1457 -0.550000 15.99940
1458 OM 1458 OM OM1 1458 -0.550000 15.99940
1459 OM 1459 OM OM1 1459 -0.550000 15.99940
1460 OM 1460 OM OM1 1460 -0.550000 15.99940
1461 OM 1461 OM OM1 1461 -0.550000 15.99940
1462 OM 1462 OM OM1 1462 -0.550000 15.99940
1463 OM 1463 OM OM1 1463 -0.550000 15.99940
1464 OM 1464 OM OM1 1464 -0.550000 15.99940
1465 OM 1465 OM OM1 1465 -0.550000 15.99940
1466 OM 1466 OM OM1 1466 -0.550000 15.99940
1467 OM 1467 OM OM1 1467 -0.550000 15.99940
1468 OM 1468 OM OM1 1468 -0.550000 15.99940
1469 OM 1469 OM OM1 1469 -0.550000 15.99940
1470 OM 1470 OM OM1 1470 -0.550000 15.99940
1471 OM 1471 OM OM1 1471 -0.550000 15.99940
1472 OM 1472 OM OM1 1472 -0.550000 15.99940
1473 OM 1473 OM OM1 1473 -0.550000 15.99940
1474 OM 1474 OM OM1 1474 -0.550000 15.99940
1475 OM 1475 OM OM1 1475 -0.550000 15.99940
1476 OM 1476 OM OM1 1476 -0.550000 15.99940
1477 OM 1477 OM OM1 1477 -0.550000 15.99940
1478 OM 1478 OM OM1 1478 -0.550000 15.99940
1479 OM 1479 OM OM1 1479 -0.550000 15.99940
1480 OM 1480 OM OM1 1480 -0.550000 15.99940
1481 OM 1481 OM OM1 1481 -0.550000 15.99940
1482 OM 1482 OM OM1 1482 -0.550000 15.99940
1483 OM 1483 OM OM1 1483 -0.550000 15.99940
1484 OM 1484 OM OM1 1484 -0.550000 15.99940
1485 OM 1485 OM OM1 1485 -0.550000 15.99940
1486 OM 1486 OM OM1 1486 -0.550000 15.99940
1487 OM 1487 OM OM1 1487 -0.550000 15.99940
1488 OM 1488 OM OM1 1488 -0.550000 15.99940
1489 OM 1489 OM OM1 1489 -0.550000 15.99940
1490 OM 1490 OM OM1 1490 -0.550000 15.99940
1491 OM 1491 OM OM1 1491 -0.550000 15.99940
1492 OM 1492 OM OM1 1492 -0.550000 15.99940
1493 OM 1493 OM OM1 1493 -0.550000 15.99940
1494 OM 1494 OM OM1 1494 -0.550000 15.99940
1495 OM 1495 OM OM1 1495 -0.550000 15.99940
1496 OM 1496 OM OM1 1496 -0.550000 15.99940
1497 OM 1497 OM OM1 1497 -0.550000 15.99940
1498 OM 1498 OM OM1 1498 -0.550000 15.99940
1499 OM 1499 OM OM1 1499 -0.550000 15.99940
1500 OM 1500 OM OM1 1500 -0.550000 15.99940
1501 OM 1501 OM OM1 1501 -0.550000 15.99940
1502 OM 1502 OM OM1 1502 -0.550000 15.99940
1503 OM 1503 OM OM1 1503 -0.550000 15.99940
1504 OM 1504 OM OM1 1504 -0.550000 15.99940
1505 OM 1505 OM OM1 1505 -0.550000 15.99940
1506 OM 1506 OM OM1 1506 -0.550000 15.99940
1507 OM 1507 OM OM1 1507 -0.550000 15.99940
1508 OM 1508 OM OM1 1508 -0.550000 15.99940
1509 OM 1509 OM OM1 1509 -0.550000 15.99940
1510 OM 1510 OM OM1 1510 -0.550000 15.99940
1511 OM 1511 OM OM1 1511 -0.550000 15.99940
1512 OM 1512 OM OM1 1512 -0.550000 15.99940
1513 OM 1513 OM OM1 1513 -0.550000 15.99940
1514 OM 1514 OM OM1 1514 -0.550000 15.99940
1515 OM 1515 OM OM1 1515 -0.550000 15.99940
1516 OM 1516 OM OM1 1516 -0.550000 15.99940
1517 OM 1517 OM OM1 1517 -0.550000 15.99940
1518 OM 1518 OM OM1 1518 -0.550000 15.99940
1519 OM 1519 OM OM1 1519 -0.550000 15.99940
1520 OM 1520 OM OM1 1520 -0.550000 15.99940
1521 OM 1521 OM OM1 1521 -0.550000 15.99940
1522 OM 1522 OM OM1 1522 -0.550000 15.99940
1523 OM 1523 OM OM1 1523 -0.550000 15.99940
1524 OM 1524 OM OM1 1524 -0.550000 15.99940
1525 OM 1525 OM OM1 1525 -0.550000 15.99940
1526 OM 1526 OM OM1 1526 -0.550000 15.99940
1527 OM 1527 OM OM1 1527 -0.550000 15.99940
1528 OM 1528 OM OM1 1528 -0.550000 15.99940
1529 OM 1529 OM OM1 1529 -0.550000 15.99940
1530 OM 1530 OM OM1 1530 -0.550000 15.99940
1531 OM 1531 OM OM1 1531 -0.550000 15.99940
1532 OM 1532 OM OM1 1532 -0.550000 15.99940
1533 OM 1533 OM OM1 1533 -0.550000 15.99940
1534 OM 1534 OM OM1 1534 -0.550000 15.99940
1535 OM 1535 OM OM1 1535 -0.550000 15.99940
1536 OM 1536 OM OM1 1536 -0.550000 15.99940
1537 OM 1537 OM OM1 1537 -0.550000 15.99940
1538 OM 1538 OM OM1 1538 -0.550000 15.99940
1539 OM 1539 OM OM1 1539 -0.550000 15.99940
1540 OM 1540 OM OM1 1540 -0.550000 15.99940
1541 OM 1541 OM OM1 1541 -0.550000 15.99940
1542 OM 1542 OM OM1 1542 -0.550000 15.99940
1543 OM 1543 OM OM1 1543 -0.550000 15.99940
1544 OM 1544 OM OM1 1544 -0.550000 15.99940
1545 OM 1545 OM OM1 1545 -0.550000 15.99940
1546 OM 1546 OM OM1 1546 -0.550000 15.99940
1547 OM 1547 OM OM1 1547 -0.550000 15.99940
1548 OM 1548 OM OM1 1548 -0.550000 15.99940
1549 OM 1549 OM OM1 1549 -0.550000 15.99940
1550 OM 1550 OM OM1 1550 -0.550000 15.99940
1551 OM 1551 OM OM1 1551 -0.550000 15.99940
1552 OM 1552 OM OM1 1552 -0.550000 15.99940
1553 OM 1553 OM OM1 1553 -0.550000 15.99940
1554 OM 1554 OM OM1 1554 -0.550000 15.99940
1555 OM 1555 OM OM1 1555 -0.550000 15.99940
1556 OM 1556 OM OM1 1556 -0.550000 15.99940
1557 OM 1557 OM OM1 1557 -0.550000 15.99940
1558 OM 1558 OM OM1 1558 -0.550000 15.99940
1559 OM 1559 OM OM1 1559 -0.550000 15.99940
1560 OM 1560 OM OM1 1560 -0.550000 15.99940
1561 OM 1561 OM OM1 1561 -0.550000 15.99940
1562 OM 1562 OM OM1 1562 -0.550000 15.99940
1563 OM 1563 OM OM1 1563 -0.550000 15.99940
1564 OM 1564 OM OM1 1564 -0.550000 15.99940
1565 OM 1565 OM OM1 1565 -0.550000 15.99940
1566 OM 1566 OM OM1 1566 -0.550000 15.99940
1567 OM 1567 OM OM1 1567 -0.550000 15.99940
1568 OM 1568 OM OM1 1568 -0.550000 15.99940
1569 OM 1569 OM OM1 1569 -0.550000 15.99940
1570 OM 1570 OM OM1 1570 -0.550000 15.99940
1571 OM 1571 OM OM1 1571 -0.550000 15.99940
1572 OM 1572 OM OM1 1572 -0.550000 15.99940
1573 OM 1573 OM OM1 1573 -0.550000 15.99940
1574 OM 1574 OM OM1 1574 -0.550000 15.99940
1575 OM 1575 OM OM1 1575 -0.550000 15.99940
1576 OM 1576 OM OM1 1576 -0.550000 15.99940
1577 OM 1577 OM OM1 1577 -0.550000 15.99940
1578 OM 1578 OM OM1 1578 -0.550000 15.99940
1579 OM 1579 OM OM1 1579 -0.550000 15.99940
1580 OM 1580 OM OM1 1580 -0.550000 15.99940
1581 OM 1581 OM OM1 1581 -0.550000 15.99940
1582 OM 1582 OM OM1 1582 -0.550000 15.99940
1583 OM 1583 OM OM1 1583 -0.550000 15.99940
1584 OM 1584 OM OM1 1584 -0.550000 15.99940
1585 OM 1585 OM OM1 1585 -0.550000 15.99940
1586 OM 1586 OM OM1 1586 -0.550000 15.99940
1587 OM 1587 OM OM1 1587 -0.550000 15.99940
1588 OM 1588 OM OM1 1588 -0.550000 15.99940
1589 OM 1589 OM OM1 1589 -0.550000 15.99940
1590 OM 1590 OM OM1 1590 -0.550000 15.99940
1591 OM 1591 OM OM1 1591 -0.550000 15.99940
1592 OM 1592 OM OM1 1592 -0.550000 15.99940
1593 OM 1593 OM OM1 1593 -0.550000 15.99940
1594 OM 1594 OM OM1 1594 -0.550000 15.99940
1595 OM 1595 OM OM1 1595 -0.550000 15.99940
1596 OM 1596 OM OM1 1596 -0.550000 15.99940
1597 OM 1597 OM OM1 1597 -0.550000 15.99940
1598 OM 1598 OM OM1 1598 -0.550000 15.99940
1599 OM 1599 OM OM1 1599 -0.550000 15.99940
1600 OM 1600 OM OM1 1600 -0.550000 15.99940
1601 OM 1601 OM OM1 1601 -0.550000 15.99940
1602 OM 1602 OM OM1 1602 -0.550000 15.99940
1603 OM 1603 OM OM1 1603 -0.550000 15.99940
1604 OM 1604 OM OM1 1604 -0.550000 15.99940
1605 OM 1605 OM OM1 1605 -0.550000 15.99940
1606 OM 1606 OM OM1 1606 -0.550000 15.99940
1607 OM 1607 OM OM1 1607 -0.550000 15.99940
1608 OM 1608 OM OM1 1608 -0.550000 15.99940
1609 OM 1609 OM OM1 1609 -0.550000 15.99940
1610 OM 1610 OM OM1 1610 -0.550000 15.99940
1611 OM 1611 OM OM1 1611 -0.550000 15.99940
1612 OM 1612 OM OM1 1612 -0.550000 15.99940
1613 OM 1613 OM OM1 1613 -0.550000 15.99940
1614 OM 1614 OM OM1 1614 -0.550000 15.99940
1615 OM 1615 OM OM1 1615 -0.550000 15.99940
1616 OM 1616 OM OM1 1616 -0.550000 15.99940
1617 OM 1617 OM OM1 1617 -0.550000 15.99940
1618 OM 1618 OM OM1 1618 -0.550000 15.99940
1619 OM 1619 OM OM1 1619 -0.550000 15.99940
1620 OM 1620 OM OM1 1620 -0.550000 15.99940
1621 OM 1621 OM OM1 1621 -0.550000 15.99940
1622 OM 1622 OM OM1 1622 -0.550000 15.99940
1623 OM 1623 OM OM1 1623 -0.550000 15.99940
1624 OM 1624 OM OM1 1624 -0.550000 15.99940
1625 OM 1625 OM OM1 1625 -0.550000 15.99940
1626 OM 1626 OM OM1 1626 -0.550000 15.99940
1627 OM 1627 OM OM1 1627 -0.550000 15.99940
1628 OM 1628 OM OM1 1628 -0.550000 15.99940
1629 OM 1629 OM OM1 1629 -0.550000 15.99940
1630 OM 1630 OM OM1 1630 -0.550000 15.99940
1631 OM 1631 OM OM1 1631 -0.550000 15.99940
1632 OM 1632 OM OM1 1632 -0.550000 15.99940
1633 OM 1633 OM OM1 1633 -0.550000 15.99940
1634 OM 1634 OM OM1 1634 -0.550000 15.99940
1635 OM 1635 OM OM1 1635 -0.550000 15.99940
1636 OM 1636 OM OM1 1636 -0.550000 15.99940
1637 OM 1637 OM OM1 1637 -0.550000 15.99940
1638 OM 1638 OM OM1 1638 -0.550000 15.99940
1639 OM 1639 OM OM1 1639 -0.550000 15.99940
1640 OM 1640 OM OM1 1640 -0.550000 15.99940
1641 OM 1641 OM OM1 1641 -0.550000 15.99940
1642 OM 1642 OM OM1 1642 -0.550000 15.99940
1643 OM 1643 OM OM1 1643 -0.550000 15.99940
1644 OM 1644 OM OM1 1644 -0.550000 15.99940
1645 OM 1645 OM OM1 1645 -0.550000 15.99940
1646 OM 1646 OM OM1 1646 -0.550000 15.99940
1647 OM 1647 OM OM1 1647 -0.550000 15.99940
1648 OM 1648 OM OM1 1648 -0.550000 15.99940
1649 OM 1649 OM OM1 1649 -0.550000 15.99940
1650 OM 1650 OM OM1 1650 -0.550000 15.99940
1651 OM 1651 OM OM1 1651 -0.550000 15.99940
1652 OM 1652 OM OM1 1652 -0.550000 15.99940
1653 OM 1653 OM OM1 1653 -0.550000 15.99940
1654 OM 1654 OM OM1 1654 -0.550000 15.99940
1655 OM 1655 OM OM1 1655 -0.550000 15.99940
1656 OM 1656 OM OM1 1656 -0.550000 15.99940
1657 OM 1657 OM OM1 1657 -0.550000 15.99940
1658 OM 1658 OM OM1 1658 -0.550000 15.99940
1659 OM 1659 OM OM1 1659 -0.550000 15.99940
1660 OM 1660 OM OM1 1660 -0.550000 15.99940
1661 OM 1661 OM OM1 1661 -0.550000 15.99940
1662 OM 1662 OM OM1 1662 -0.550000 15.99940
1663 OM 1663 OM OM1 1663 -0.550000 15.99940
1664 OM 1664 OM OM1 1664 -0.550000 15.99940
1665 OM 1665 OM OM1 1665 -0.550000 15.99940
1666 OM 1666 OM OM1 1666 -0.550000 15.99940
1667 OM 1667 OM OM1 1667 -0.550000 15.99940
1668 OM 1668 OM OM1 1668 -0.550000 15.99940
1669 OM 1669 OM OM1 1669 -0.550000 15.99940
1670 OM 1670 OM OM1 1670 -0.550000 15.99940
1671 OM 1671 OM OM1 1671 -0.550000 15.99940
1672 OM 1672 OM OM1 1672 -0.550000 15.99940
1673 OM 1673 OM OM1 1673 -0.550000 15.99940
1674 OM 1674 OM OM1 1674 -0.550000 15.99940
1675 OM 1675 OM OM1 1675 -0.550000 15.99940
1676 OM 1676 OM OM1 1676 -0.550000 15.99940
1677 OM 1677 OM OM1 1677 -0.550000 15.99940
1678 OM 1678 OM OM1 1678 -0.550000 15.99940
1679 OM 1679 OM OM1 1679 -0.550000 15.99940
1680 OM 1680 OM OM1 1680 -0.550000 15.99940
1681 OM 1681 OM OM1 1681 -0.550000 15.99940
1682 OM 1682 OM OM1 1682 -0.550000 15.99940
1683 OM 1683 OM OM1 1683 -0.550000 15.99940
1684 OM 1684 OM OM1 1684 -0.550000 15.99940
1685 OM 1685 OM OM1 1685 -0.550000 15.99940
1686 OM 1686 OM OM1 1686 -0.550000 15.99940
1687 OM 1687 OM OM1 1687 -0.550000 15.99940
1688 OM 1688 OM OM1 1688 -0.550000 15.99940
1689 OM 1689 OM OM1 1689 -0.550000 15.99940
1690 OM 1690 OM OM1 1690 -0.550000 15.99940
1691 OM 1691 OM OM1 1691 -0.550000 15.99940
1692 OM 1692 OM OM1 1692 -0.550000 15.99940
1693 OM 1693 OM OM1 1693 -0.550000 15.99940
1694 OM 1694 OM OM1 1694 -0.550000 15.99940
1695 OM 1695 OM OM1 1695 -0.550000 15.99940
1696 OM 1696 OM OM1 1696 -0.550000 15.99940
1697 OM 1697 OM OM1 1697 -0.550000 15.99940
1698 OM 1698 OM OM1 1698 -0.550000 15.99940
1699 OM 1699 OM OM1 1699 -0.550000 15.99940
1700 OM 1700 OM OM1 1700 -0.550000 15.99940
1701 OM 1701 OM OM1 1701 -0.550000 15.99940
1702 OM 1702 OM OM1 1702 -0.550000 15.99940
1703 OM 1703 OM OM1 1703 -0.550000 15.99940
1704 OM 1704 OM OM1 1704 -0.550000 15.99940
1705 OM 1705 OM OM1 1705 -0.550000 15.99940
1706 OM 1706 OM OM1 1706 -0.550000 15.99940
1707 OM 1707 OM OM1 1707 -0.550000 15.99940
1708 OM 1708 OM OM1 1708 -0.550000 15.99940
1709 OM 1709 OM OM1 1709 -0.550000 15.99940
1710 OM 1710 OM OM1 1710 -0.550000 15.99940
1711 OM 1711 OM OM1 1711 -0.550000 15.99940
1712 OM 1712 OM OM1 1712 -0.550000 15.99940
1713 OM 1713 OM OM1 1713 -0.550000 15.99940
1714 OM 1714 OM OM1 1714 -0.550000 15.99940
1715 OM 1715 OM OM1 1715 -0.550000 15.99940
1716 OM 1716 OM OM1 1716 -0.550000 15.99940
1717 OM 1717 OM OM1 1717 -0.550000 15.99940
1718 OM 1718 OM OM1 1718 -0.550000 15.99940
1719 OM 1719 OM OM1 1719 -0.550000 15.99940
1720 OM 1720 OM OM1 1720 -0.550000 15.99940
1721 OM 1721 OM OM1 1721 -0.550000 15.99940
1722 OM 1722 OM OM1 1722 -0.550000 15.99940
1723 OM 1723 OM OM1 1723 -0.550000 15.99940
1724 OM 1724 OM OM1 1724 -0.550000 15.99940
1725 OM 1725 OM OM1 1725 -0.550000 15.99940
1726 OM 1726 OM OM1 1726 -0.550000 15.99940
1727 OM 1727 OM OM1 1727 -0.550000 15.99940
1728 OM 1728 OM OM1 1728 -0.550000 15.99940
1729 OM 1729 OM OM1 1729 -0.550000 15.99940
1730 OM 1730 OM OM1 1730 -0.550000 15.99940
1731 OM 1731 OM OM1 1731 -0.550000 15.99940
1732 OM 1732 OM OM1 1732 -0.550000 15.99940
1733 OM 1733 OM OM1 1733 -0.550000 15.99940
1734 OM 1734 OM OM1 1734 -0.550000 15.99940
1735 OM 1735 OM OM1 1735 -0.550000 15.99940
1736 OM 1736 OM OM1 1736 -0.550000 15.99940
1737 OM 1737 OM OM1 1737 -0.550000 15.99940
1738 OM 1738 OM OM1 1738 -0.550000 15.99940
1739 OM 1739 OM OM1 1739 -0.550000 15.99940
1740 OM 1740 OM OM1 1740 -0.550000 15.99940
1741 OM 1741 OM OM1 1741 -0.550000 15.99940
1742 OM 1742 OM OM1 1742 -0.550000 15.99940
1743 OM 1743 OM OM1 1743 -0.550000 15.99940
1744 OM 1744 OM OM1 1744 -0.550000 15.99940
1745 OM 1745 OM OM1 1745 -0.550000 15.99940
1746 OM 1746 OM OM1 1746 -0.550000 15.99940
1747 OM 1747 OM OM1 1747 -0.550000 15.99940
1748 OM 1748 OM OM1 1748 -0.550000 15.99940
1749 OM 1749 OM OM1 1749 -0.550000 15.99940
1750 OM 1750 OM OM1 1750 -0.550000 15.99940
1751 OM 1751 OM OM1 1751 -0.550000 15.99940
1752 OM 1752 OM OM1 1752 -0.550000 15.99940
1753 OM 1753 OM OM1 1753 -0.550000 15.99940
1754 OM 1754 OM OM1 1754 -0.550000 15.99940
1755 OM 1755 OM OM1 1755 -0.550000 15.99940
1756 OM 1756 OM OM1 1756 -0.550000 15.99940
1757 OM 1757 OM OM1 1757 -0.550000 15.99940
1758 OM 1758 OM OM1 1758 -0.550000 15.99940
1759 OM 1759 OM OM1 1759 -0.550000 15.99940
1760 OM 1760 OM OM1 1760 -0.550000 15.99940
1761 OM 1761 OM OM1 1761 -0.550000 15.99940
1762 OM 1762 OM OM1 1762 -0.550000 15.99940
1763 OM 1763 OM OM1 1763 -0.550000 15.99940
1764 OM 1764 OM OM1 1764 -0.550000 15.99940
1765 OM 1765 OM OM1 1765 -0.550000 15.99940
1766 OM 1766 OM OM1 1766 -0.550000 15.99940
1767 OM 1767 OM OM1 1767 -0.550000 15.99940
1768 OM 1768 OM OM1 1768 -0.550000 15.99940
1769 OM 1769 OM OM1 1769 -0.550000 15.99940
1770 OM 1770 OM OM1 1770 -0.550000 15.99940
1771 OM 1771 OM OM1 1771 -0.550000 15.99940
1772 OM 1772 OM OM1 1772 -0.550000 15.99940
1773 OM 1773 OM OM1 1773 -0.550000 15.99940
1774 OM 1774 OM OM1 1774 -0.550000 15.99940
1775 OM 1775 OM OM1 1775 -0.550000 15.99940
1776 OM 1776 OM OM1 1776 -0.550000 15.99940
1777 OM 1777 OM OM1 1777 -0.550000 15.99940
1778 OM 1778 OM OM1 1778 -0.550000 15.99940
1779 OM 1779 OM OM1 1779 -0.550000 15.99940
1780 OM 1780 OM OM1 1780 -0.550000 15.99940
1781 OM 1781 OM OM1 1781 -0.550000 15.99940
1782 OM 1782 OM OM1 1782 -0.550000 15.99940
1783 OM 1783 OM OM1 1783 -0.550000 15.99940
1784 OM 1784 OM OM1 1784 -0.550000 15.99940
1785 OM 1785 OM OM1 1785 -0.550000 15.99940
1786 OM 1786 OM OM1 1786 -0.550000 15.99940
1787 OM 1787 OM OM1 1787 -0.550000 15.99940
1788 OM 1788 OM OM1 1788 -0.550000 15.99940
1789 OM 1789 OM OM1 1789 -0.550000 15.99940
1790 OM 1790 OM OM1 1790 -0.550000 15.99940
1791 OM 1791 OM OM1 1791 -0.550000 15.99940
1792 OM 1792 OM OM1 1792 -0.550000 15.99940
1793 OM 1793 OM OM1 1793 -0.550000 15.99940
1794 OM 1794 OM OM1 1794 -0.550000 15.99940
1795 OM 1795 OM OM1 1795 -0.550000 15.99940
1796 OM 1796 OM OM1 1796 -0.550000 15.99940
1797 OM 1797 OM OM1 1797 -0.550000 15.99940
1798 OM 1798 OM OM1 1798 -0.550000 15.99940
1799 OM 1799 OM OM1 1799 -0.550000 15.99940
1800 OM 1800 OM OM1 1800 -0.550000 15.99940
1801 OM 1801 OM OM1 1801 -0.550000 15.99940
1802 OM 1802 OM OM1 1802 -0.550000 15.99940
1803 OM 1803 OM OM1 1803 -0.550000 15.99940
1804 OM 1804 OM OM1 1804 -0.550000 15.99940
1805 OM 1805 OM OM1 1805 -0.550000 15.99940
1806 OM 1806 OM OM1 1806 -0.550000 15.99940
1807 OM 1807 OM OM1 1807 -0.550000 15.99940
1808 OM 1808 OM OM1 1808 -0.550000 15.99940
1809 OM 1809 OM OM1 1809 -0.550000 15.99940
1810 OM 1810 OM OM1 1810 -0.550000 15.99940
1811 OM 1811 OM OM1 1811 -0.550000 15.99940
1812 OM 1812 OM OM1 1812 -0.550000 15.99940
1813 OM 1813 OM OM1 1813 -0.550000 15.99940
1814 OM 1814 OM OM1 1814 -0.550000 15.99940
1815 OM 1815 OM OM1 1815 -0.550000 15.99940
1816 OM 1816 OM OM1 1816 -0.550000 15.99940
1817 OM 1817 OM OM1 1817 -0.550000 15.99940
1818 OM 1818 OM OM1 1818 -0.550000 15.99940
1819 OM 1819 OM OM1 1819 -0.550000 15.99940
1820 OM 1820 OM OM1 1820 -0.550000 15.99940
1821 OM 1821 OM OM1 1821 -0.550000 15.99940
1822 OM 1822 OM OM1 1822 -0.550000 15.99940
1823 OM 1823 OM OM1 1823 -0.550000 15.99940
1824 OM 1824 OM OM1 1824 -0.550000 15.99940
1825 OM 1825 OM OM1 1825 -0.550000 15.99940
1826 OM 1826 OM OM1 1826 -0.550000 15.99940
1827 OM 1827 OM OM1 1827 -0.550000 15.99940
1828 OM 1828 OM OM1 1828 -0.550000 15.99940
1829 OM 1829 OM OM1 1829 -0.550000 15.99940
1830 OM 1830 OM OM1 1830 -0.550000 15.99940
1831 OM 1831 OM OM1 1831 -0.550000 15.99940
1832 OM 1832 OM OM1 1832 -0.550000 15.99940
1833 OM 1833 OM OM1 1833 -0.550000 15.99940
1834 OM 1834 OM OM1 1834 -0.550000 15.99940
1835 OM 1835 OM OM1 1835 -0.550000 15.99940
1836 OM 1836 OM OM1 1836 -0.550000 15.99940
1837 OM 1837 OM OM1 1837 -0.550000 15.99940
1838 OM 1838 OM OM1 1838 -0.550000 15.99940
1839 OM 1839 OM OM1 1839 -0.550000 15.99940
1840 OM 1840 OM OM1 1840 -0.550000 15.99940
1841 OM 1841 OM OM1 1841 -0.550000 15.99940
1842 OM 1842 OM OM1 1842 -0.550000 15.99940
1843 OM 1843 OM OM1 1843 -0.550000 15.99940
1844 OM 1844 OM OM1 1844 -0.550000 15.99940
1845 OM 1845 OM OM1 1845 -0.550000 15.99940
1846 OM 1846 OM OM1 1846 -0.550000 15.99940
1847 OM 1847 OM OM1 1847 -0.550000 15.99940
1848 OM 1848 OM OM1 1848 -0.550000 15.99940
1849 OM 1849 OM OM1 1849 -0.550000 15.99940
1850 OM 1850 OM OM1 1850 -0.550000 15.99940
1851 OM 1851 OM OM1 1851 -0.550000 15.99940
1852 OM 1852 OM OM1 1852 -0.550000 15.99940
1853 OM 1853 OM OM1 1853 -0.550000 15.99940
1854 OM 1854 OM OM1 1854 -0.550000 15.99940
1855 OM 1855 OM OM1 1855 -0.550000 15.99940
1856 OM 1856 OM OM1 1856 -0.550000 15.99940
1857 OM 1857 OM OM1 1857 -0.550000 15.99940
1858 OM 1858 OM OM1 1858 -0.550000 15.99940
1859 OM 1859 OM OM1 1859 -0.550000 15.99940
1860 OM 1860 OM OM1 1860 -0.550000 15.99940
1861 OM 1861 OM OM1 1861 -0.550000 15.99940
1862 OM 1862 OM OM1 1862 -0.550000 15.99940
1863 OM 1863 OM OM1 1863 -0.550000 15.99940
1864 OM 1864 OM OM1 1864 -0.550000 15.99940
1865 OM 1865 OM OM1 1865 -0.550000 15.99940
1866 OM 1866 OM OM1 1866 -0.550000 15.99940
1867 OM 1867 OM OM1 1867 -0.550000 15.99940
1868 OM 1868 OM OM1 1868 -0.550000 15.99940
1869 OM 1869 OM OM1 1869 -0.550000 15.99940
1870 OM 1870 OM OM1 1870 -0.550000 15.99940
1871 OM 1871 OM OM1 1871 -0.550000 15.99940
1872 OM 1872 OM OM1 1872 -0.550000 15.99940
1873 OM 1873 OM OM1 1873 -0.550000 15.99940
1874 OM 1874 OM OM1 1874 -0.550000 15.99940
1875 OM 1875 OM OM1 1875 -0.550000 15.99940
1876 OM 1876 OM OM1 1876 -0.550000 15.99940
1877 OM 1877 OM OM1 1877 -0.550000 15.99940
1878 OM 1878 OM OM1 1878 -0.550000 15.99940
1879 OM 1879 OM OM1 1879 -0.550000 15.99940
1880 OM 1880 OM OM1 1880 -0.550000 15.99940
1881 OM 1881 OM OM1 1881 -0.550000 15.99940
1882 OM 1882 OM OM1 1882 -0.550000 15.99940
1883 OM 1883 OM OM1 1883 -0.550000 15.99940
1884 OM 1884 OM OM1 1884 -0.550000 15.99940
1885 OM 1885 OM OM1 1885 -0.550000 15.99940
1886 OM 1886 OM OM1 1886 -0.550000 15.99940
1887 OM 1887 OM OM1 1887 -0.550000 15.99940
1888 OM 1888 OM OM1 1888 -0.550000 15.99940
1889 OM 1889 OM OM1 1889 -0.550000 15.99940
1890 OM 1890 OM OM1 1890 -0.550000 15.99940
1891 OM 1891 OM OM1 1891 -0.550000 15.99940
1892 OM 1892 OM OM1 1892 -0.550000 15.99940
1893 OM 1893 OM OM1 1893 -0.550000 15.99940
1894 OM 1894 OM OM1 1894 -0.550000 15.99940
1895 OM 1895 OM OM1 1895 -0.550000 15.99940
1896 OM 1896 OM OM1 1896 -0.550000 15.99940
1897 OM 1897 OM OM1 1897 -0.550000 15.99940
1898 OM 1898 OM OM1 1898 -0.550000 15.99940
1899 OM 1899 OM OM1 1899 -0.550000 15.99940
1900 OM 1900 OM OM1 1900 -0.550000 15.99940
1901 OM 1901 OM OM1 1901 -0.550000 15.99940
1902 OM 1902 OM OM1 1902 -0.550000 15.99940
1903 OM 1903 OM OM1 1903 -0.550000 15.99940
1904 OM 1904 OM OM1 1904 -0.550000 15.99940
1905 OM 1905 OM OM1 1905 -0.550000 15.99940
1906 OM 1906 OM OM1 1906 -0.550000 15.99940
1907 OM 1907 OM OM1 1907 -0.550000 15.99940
1908 OM 1908 OM OM1 1908 -0.550000 15.99940
1909 OM 1909 OM OM1 1909 -0.550000 15.99940
1910 OM 1910 OM OM1 1910 -0.550000 15.99940
1911 OM 1911 OM OM1 1911 -0.550000 15.99940
1912 OM 1912 OM OM1 1912 -0.550000 15.99940
1913 OM 1913 OM OM1 1913 -0.550000 15.99940
1914 OM 1914 OM OM1 1914 -0.550000 15.99940
1915 OM 1915 OM OM1 1915 -0.550000 15.99940
1916 OM 1916 OM OM1 1916 -0.550000 15.99940
1917 OM 1917 OM OM1 1917 -0.550000 15.99940
1918 OM 1918 OM OM1 1918 -0.550000 15.99940
1919 OM 1919 OM OM1 1919 -0.550000 15.99940
1920 OM 1920 OM OM1 1920 -0.550000 15.99940
1921 OM 1921 OM OM1 1921 -0.550000 15.99940
1922 OM 1922 OM OM1 1922 -0.550000 15.99940
1923 OM 1923 OM OM1 1923 -0.550000 15.99940
1924 OM 1924 OM OM1 1924 -0.550000 15.99940
1925 OM 1925 OM OM1 1925 -0.550000 15.99940
1926 OM 1926 OM OM1 1926 -0.550000 15.99940
1927 OM 1927 OM OM1 1927 -0.550000 15.99940
1928 OM 1928 OM OM1 1928 -0.550000 15.99940
1929 OM 1929 OM OM1 1929 -0.550000 15.99940
1930 OM 1930 OM OM1 1930 -0.550000 15.99940
1931 OM 1931 OM OM1 1931 -0.550000 15.99940
1932 OM 1932 OM OM1 1932 -0.550000 15.99940
1933 OM 1933 OM OM1 1933 -0.550000 15.99940
1934 OM 1934 OM OM1 1934 -0.550000 15.99940
1935 OM 1935 OM OM1 1935 -0.550000 15.99940
1936 OM 1936 OM OM1 1936 -0.550000 15.99940
1937 OM 1937 OM OM1 1937 -0.550000 15.99940
1938 OM 1938 OM OM1 1938 -0.550000 15.99940
1939 OM 1939 OM OM1 1939 -0.550000 15.99940
1940 OM 1940 OM OM1 1940 -0.550000 15.99940
1941 OM 1941 OM OM1 1941 -0.550000 15.99940
1942 OM 1942 OM OM1 1942 -0.550000 15.99940
1943 OM 1943 OM OM1 1943 -0.550000 15.99940
1944 OM 1944 OM OM1 1944 -0.550000 15.99940
1945 OM 1945 OM OM1 1945 -0.550000 15.99940
1946 OM 1946 OM OM1 1946 -0.550000 15.99940
1947 OM 1947 OM OM1 1947 -0.550000 15.99940
1948 OM 1948 OM OM1 1948 -0.550000 15.99940
1949 OM 1949 OM OM1 1949 -0.550000 15.99940
1950 OM 1950 OM OM1 1950 -0.550000 15.99940
1951 OM 1951 OM OM1 1951 -0.550000 15.99940
1952 OM 1952 OM OM1 1952 -0.550000 15.99940
1953 OM 1953 OM OM1 1953 -0.550000 15.99940
1954 OM 1954 OM OM1 1954 -0.550000 15.99940
1955 OM 1955 OM OM1 1955 -0.550000 15.99940
1956 OM 1956 OM OM1 1956 -0.550000 15.99940
1957 OM 1957 OM OM1 1957 -0.550000 15.99940
1958 OM 1958 OM OM1 1958 -0.550000 15.99940
1959 OM 1959 OM OM1 1959 -0.550000 15.99940
1960 OM 1960 OM OM1 1960 -0.550000 15.99940
1961 OM 1961 OM OM1 1961 -0.550000 15.99940
1962 OM 1962 OM OM1 1962 -0.550000 15.99940
1963 OM 1963 OM OM1 1963 -0.550000 15.99940
1964 OM 1964 OM OM1 1964 -0.550000 15.99940
1965 OM 1965 OM OM1 1965 -0.550000 15.99940
1966 OM 1966 OM OM1 1966 -0.550000 15.99940
1967 OM 1967 OM OM1 1967 -0.550000 15.99940
1968 OM 1968 OM OM1 1968 -0.550000 15.99940
1969 OM 1969 OM OM1 1969 -0.550000 15.99940
1970 OM 1970 OM OM1 1970 -0.550000 15.99940
1971 OM 1971 OM OM1 1971 -0.550000 15.99940
1972 OM 1972 OM OM1 1972 -0.550000 15.99940
1973 OM 1973 OM OM1 1973 -0.550000 15.99940
1974 OM 1974 OM OM1 1974 -0.550000 15.99940
1975 OM 1975 OM OM1 1975 -0.550000 15.99940
1976 OM 1976 OM OM1 1976 -0.550000 15.99940
1977 OM 1977 OM OM1 1977 -0.550000 15.99940
1978 OM 1978 OM OM1 1978 -0.550000 15.99940
1979 OM 1979 OM OM1 1979 -0.550000 15.99940
1980 OM 1980 OM OM1 1980 -0.550000 15.99940
1981 OM 1981 OM OM1 1981 -0.550000 15.99940
1982 OM 1982 OM OM1 1982 -0.550000 15.99940
1983 OM 1983 OM OM1 1983 -0.550000 15.99940
1984 OM 1984 OM OM1 1984 -0.550000 15.99940
1985 OM 1985 OM OM1 1985 -0.550000 15.99940
1986 OM 1986 OM OM1 1986 -0.550000 15.99940
1987 OM 1987 OM OM1 1987 -0.550000 15.99940
1988 OM 1988 OM OM1 1988 -0.550000 15.99940
1989 OM 1989 OM OM1 1989 -0.550000 15.99940
1990 OM 1990 OM OM1 1990 -0.550000 15.99940
1991 OM 1991 OM OM1 1991 -0.550000 15.99940
1992 OM 1992 OM OM1 1992 -0.550000 15.99940
1993 OM 1993 OM OM1 1993 -0.550000 15.99940
1994 OM 1994 OM OM1 1994 -0.550000 15.99940
1995 OM 1995 OM OM1 1995 -0.550000 15.99940
1996 OM 1996 OM OM1 1996 -0.550000 15.99940
1997 OM 1997 OM OM1 1997 -0.550000 15.99940
1998 OM 1998 OM OM1 1998 -0.550000 15.99940
1999 OM 1999 OM OM1 1999 -0.550000 15.99940
2000 OM 2000 OM OM1 2000 -0.550000 15.99940
2001 OM 2001 OM OM1 2001 -0.550000 15.99940
2002 OM 2002 OM OM1 2002 -0.550000 15.99940
2003 OM 2003 OM OM1 2003 -0.550000 15.99940
2004 OM 2004 OM OM1 2004 -0.550000 15.99940
2005 OM 2005 OM OM1 2005 -0.550000 15.99940
2006 OM 2006 OM OM1 2006 -0.550000 15.99940
2007 OM 2007 OM OM1 2007 -0.550000 15.99940
2008 OM 2008 OM OM1 2008 -0.550000 15.99940
2009 OM 2009 OM OM1 2009 -0.550000 15.99940
2010 OM 2010 OM OM1 2010 -0.550000 15.99940
2011 OM 2011 OM OM1 2011 -0.550000 15.99940
2012 OM 2012 OM OM1 2012 -0.550000 15.99940
2013 OM 2013 OM OM1 2013 -0.550000 15.99940
2014 OM 2014 OM OM1 2014 -0.550000 15.99940
2015 OM 2015 OM OM1 2015 -0.550000 15.99940
2016 OM 2016 OM OM1 2016 -0.550000 15.99940
2017 OM 2017 OM OM1 2017 -0.550000 15.99940
2018 OM 2018 OM OM1 2018 -0.550000 15.99940
2019 OM 2019 OM OM1 2019 -0.550000 15.99940
2020 OM 2020 OM OM1 2020 -0.550000 15.99940
2021 OM 2021 OM OM1 2021 -0.550000 15.99940
2022 OM 2022 OM OM1 2022 -0.550000 15.99940
2023 OM 2023 OM OM1 2023 -0.550000 15.99940
2024 OM 2024 OM OM1 2024 -0.550000 15.99940
2025 OM 2025 OM OM1 2025 -0.550000 15.99940
2026 OM 2026 OM OM1 2026 -0.550000 15.99940
2027 OM 2027 OM OM1 2027 -0.550000 15.99940
2028 OM 2028 OM OM1 2028 -0.550000 15.99940
2029 OM 2029 OM OM1 2029 -0.550000 15.99940
2030 OM 2030 OM OM1 2030 -0.550000 15.99940
2031 OM 2031 OM OM1 2031 -0.550000 15.99940
2032 OM 2032 OM OM1 2032 -0.550000 15.99940
2033 OM 2033 OM OM1 2033 -0.550000 15.99940
2034 OM 2034 OM OM1 2034 -0.550000 15.99940
2035 OM 2035 OM OM1 2035 -0.550000 15.99940
2036 OM 2036 OM OM1 2036 -0.550000 15.99940
2037 OM 2037 OM OM1 2037 -0.550000 15.99940
2038 OM 2038 OM OM1 2038 -0.550000 15.99940
2039 OM 2039 OM OM1 2039 -0.550000 15.99940
2040 OM 2040 OM OM1 2040 -0.550000 15.99940
2041 OM 2041 OM OM1 2041 -0.550000 15.99940
2042 OM 2042 OM OM1 2042 -0.550000 15.99940
2043 OM 2043 OM OM1 2043 -0.550000 15.99940
2044 OM 2044 OM OM1 2044 -0.550000 15.99940
2045 OM 2045 OM OM1 2045 -0.550000 15.99940
2046 OM 2046 OM OM1 2046 -0.550000 15.99940
2047 OM 2047 OM OM1 2047 -0.550000 15.99940
2048 OM 2048 OM OM1 2048 -0.550000 15.99940
2049 OM 2049 OM OM1 2049 -0.550000 15.99940
2050 OM 2050 OM OM1 2050 -0.550000 15.99940
2051 OM 2051 OM OM1 2051 -0.550000 15.99940
2052 OM 2052 OM OM1 2052 -0.550000 15.99940
2053 OM 2053 OM OM1 2053 -0.550000 15.99940
2054 OM 2054 OM OM1 2054 -0.550000 15.99940
2055 OM 2055 OM OM1 2055 -0.550000 15.99940
2056 OM 2056 OM OM1 2056 -0.550000 15.99940
2057 OM 2057 OM OM1 2057 -0.550000 15.99940
2058 OM 2058 OM OM1 2058 -0.550000 15.99940
2059 OM 2059 OM OM1 2059 -0.550000 15.99940
2060 OM 2060 OM OM1 2060 -0.550000 15.99940
2061 OM 2061 OM OM1 2061 -0.550000 15.99940
2062 OM 2062 OM OM1 2062 -0.550000 15.99940
2063 OM 2063 OM OM1 2063 -0.550000 15.99940
2064 OM 2064 OM OM1 2064 -0.550000 15.99940
2065 OM 2065 OM OM1 2065 -0.550000 15.99940
2066 OM 2066 OM OM1 2066 -0.550000 15.99940
2067 OM 2067 OM OM1 2067 -0.550000 15.99940
2068 OM 2068 OM OM1 2068 -0.550000 15.99940
2069 OM 2069 OM OM1 2069 -0.550000 15.99940
2070 OM 2070 OM OM1 2070 -0.550000 15.99940
2071 OM 2071 OM OM1 2071 -0.550000 15.99940
2072 OM 2072 OM OM1 2072 -0.550000 15.99940
2073 OM 2073 OM OM1 2073 -0.550000 15.99940
2074 OM 2074 OM OM1 2074 -0.550000 15.99940
2075 OM 2075 OM OM1 2075 -0.550000 15.99940
2076 OM 2076 OM OM1 2076 -0.550000 15.99940
2077 OM 2077 OM OM1 2077 -0.550000 15.99940
2078 OM 2078 OM OM1 2078 -0.550000 15.99940
2079 OM 2079 OM OM1 2079 -0.550000 15.99940
2080 OM 2080 OM OM1 2080 -0.550000 15.99940
2081 OM 2081 OM OM1 2081 -0.550000 15.99940
2082 OM 2082 OM OM1 2082 -0.550000 15.99940
2083 OM 2083 OM OM1 2083 -0.550000 15.99940
2084 OM 2084 OM OM1 2084 -0.550000 15.99940
2085 OM 2085 OM OM1 2085 -0.550000 15.99940
2086 OM 2086 OM OM1 2086 -0.550000 15.99940
2087 OM 2087 OM OM1 2087 -0.550000 15.99940
2088 OM 2088 OM OM1 2088 -0.550000 15.99940
2089 OM 2089 OM OM1 2089 -0.550000 15.99940
2090 OM 2090 OM OM1 2090 -0.550000 15.99940
2091 OM 2091 OM OM1 2091 -0.550000 15.99940
2092 OM 2092 OM OM1 2092 -0.550000 15.99940
2093 OM 2093 OM OM1 2093 -0.550000 15.99940
2094 OM 2094 OM OM1 2094 -0.550000 15.99940
2095 OM 2095 OM OM1 2095 -0.550000 15.99940
2096 OM 2096 OM OM1 2096 -0.550000 15.99940
2097 OM 2097 OM OM1 2097 -0.550000 15.99940
2098 OM 2098 OM OM1 2098 -0.550000 15.99940
2099 OM 2099 OM OM1 2099 -0.550000 15.99940
2100 OM 2100 OM OM1 2100 -0.550000 15.99940
2101 OM 2101 OM OM1 2101 -0.550000 15.99940
2102 OM 2102 OM OM1 2102 -0.550000 15.99940
2103 OM 2103 OM OM1 2103 -0.550000 15.99940
2104 OM 2104 OM OM1 2104 -0.550000 15.99940
2105 OM 2105 OM OM1 2105 -0.550000 15.99940
2106 OM 2106 OM OM1 2106 -0.550000 15.99940
2107 OM 2107 OM OM1 2107 -0.550000 15.99940
2108 OM 2108 OM OM1 2108 -0.550000 15.99940
2109 OM 2109 OM OM1 2109 -0.550000 15.99940
2110 OM 2110 OM OM1 2110 -0.550000 15.99940
2111 OM 2111 OM OM1 2111 -0.550000 15.99940
2112 OM 2112 OM OM1 2112 -0.550000 15.99940
2113 OM 2113 OM OM1 2113 -0.550000 15.99940
2114 OM 2114 OM OM1 2114 -0.550000 15.99940
2115 OM 2115 OM OM1 2115 -0.550000 15.99940
2116 OM 2116 OM OM1 2116 -0.550000 15.99940
2117 OM 2117 OM OM1 2117 -0.550000 15.99940
2118 OM 2118 OM OM1 2118 -0.550000 15.99940
2119 OM 2119 OM OM1 2119 -0.550000 15.99940
2120 OM 2120 OM OM1 2120 -0.550000 15.99940
2121 OM 2121 OM OM1 2121 -0.550000 15.99940
2122 OM 2122 OM OM1 2122 -0.550000 15.99940
2123 OM 2123 OM OM1 2123 -0.550000 15.99940
2124 OM 2124 OM OM1 2124 -0.550000 15.99940
2125 OM 2125 OM OM1 2125 -0.550000 15.99940
2126 OM 2126 OM OM1 2126 -0.550000 15.99940
2127 OM 2127 OM OM1 2127 -0.550000 15.99940
2128 OM 2128 OM OM1 2128 -0.550000 15.99940
2129 OM 2129 OM OM1 2129 -0.550000 15.99940
2130 OM 2130 OM OM1 2130 -0.550000 15.99940
2131 OM 2131 OM OM1 2131 -0.550000 15.99940
2132 OM 2132 OM OM1 2132 -0.550000 15.99940
2133 OM 2133 OM OM1 2133 -0.550000 15.99940
2134 OM 2134 OM OM1 2134 -0.550000 15.99940
2135 OM 2135 OM OM1 2135 -0.550000 15.99940
2136 OM 2136 OM OM1 2136 -0.550000 15.99940
2137 OM 2137 OM OM1 2137 -0.550000 15.99940
2138 OM 2138 OM OM1 2138 -0.550000 15.99940
2139 OM 2139 OM OM1 2139 -0.550000 15.99940
2140 OM 2140 OM OM1 2140 -0.550000 15.99940
2141 OM 2141 OM OM1 2141 -0.550000 15.99940
2142 OM 2142 OM OM1 2142 -0.550000 15.99940
2143 OM 2143 OM OM1 2143 -0.550000 15.99940
2144 OM 2144 OM OM1 2144 -0.550000 15.99940
2145 OM 2145 OM OM1 2145 -0.550000 15.99940
2146 OM 2146 OM OM1 2146 -0.550000 15.99940
2147 OM 2147 OM OM1 2147 -0.550000 15.99940
2148 OM 2148 OM OM1 2148 -0.550000 15.99940
2149 OM 2149 OM OM1 2149 -0.550000 15.99940
2150 OM 2150 OM OM1 2150 -0.550000 15.99940
2151 OM 2151 OM OM1 2151 -0.550000 15.99940
2152 OM 2152 OM OM1 2152 -0.550000 15.99940
2153 OM 2153 OM OM1 2153 -0.550000 15.99940
2154 OM 2154 OM OM1 2154 -0.550000 15.99940
2155 OM 2155 OM OM1 2155 -0.550000 15.99940
2156 OM 2156 OM OM1 2156 -0.550000 15.99940
2157 OM 2157 OM OM1 2157 -0.550000 15.99940
2158 OM 2158 OM OM1 2158 -0.550000 15.99940
2159 OM 2159 OM OM1 2159 -0.550000 15.99940
2160 OM 2160 OM OM1 2160 -0.550000 15.99940
2161 OM 2161 OM OM1 2161 -0.550000 15.99940
2162 OM 2162 OM OM1 2162 -0.550000 15.99940
2163 OM 2163 OM OM1 2163 -0.550000 15.99940
2164 OM 2164 OM OM1 2164 -0.550000 15.99940
2165 OM 2165 OM OM1 2165 -0.550000 15.99940
2166 OM 2166 OM OM1 2166 -0.550000 15.99940
2167 OM 2167 OM OM1 2167 -0.550000 15.99940
2168 OM 2168 OM OM1 2168 -0.550000 15.99940
2169 OM 2169 OM OM1 2169 -0.550000 15.99940
2170 OM 2170 OM OM1 2170 -0.550000 15.99940
2171 OM 2171 OM OM1 2171 -0.550000 15.99940
2172 OM 2172 OM OM1 2172 -0.550000 15.99940
2173 OM 2173 OM OM1 2173 -0.550000 15.99940
2174 OM 2174 OM OM1 2174 -0.550000 15.99940
2175 OM 2175 OM OM1 2175 -0.550000 15.99940
2176 OM 2176 OM OM1 2176 -0.550000 15.99940
2177 OM 2177 OM OM1 2177 -0.550000 15.99940
2178 OM 2178 OM OM1 2178 -0.550000 15.99940
2179 OM 2179 OM OM1 2179 -0.550000 15.99940
2180 OM 2180 OM OM1 2180 -0.550000 15.99940
2181 OM 2181 OM OM1 2181 -0.550000 15.99940
2182 OM 2182 OM OM1 2182 -0.550000 15.99940
2183 OM 2183 OM OM1 2183 -0.550000 15.99940
2184 OM 2184 OM OM1 2184 -0.550000 15.99940
2185 OM 2185 OM OM1 2185 -0.550000 15.99940
2186 OM 2186 OM OM1 2186 -0.550000 15.99940
2187 OM 2187 OM OM1 2187 -0.550000 15.99940
2188 OM 2188 OM OM1 2188 -0.550000 15.99940
2189 OM 2189 OM OM1 2189 -0.550000 15.99940
2190 OM 2190 OM OM1 2190 -0.550000 15.99940
2191 OM 2191 OM OM1 2191 -0.550000 15.99940
2192 OM 2192 OM OM1 2192 -0.550000 15.99940
2193 OM 2193 OM OM1 2193 -0.550000 15.99940
2194 OM 2194 OM OM1 2194 -0.550000 15.99940
2195 OM 2195 OM OM1 2195 -0.550000 15.99940
2196 OM 2196 OM OM1 2196 -0.550000 15.99940
2197 OM 2197 OM OM1 2197 -0.550000 15.99940
2198 OM 2198 OM OM1 2198 -0.550000 15.99940
2199 OM 2199 OM OM1 2199 -0.550000 15.99940
2200 OM 2200 OM OM1 2200 -0.550000 15.99940
2201 OM 2201 OM OM1 2201 -0.550000 15.99940
2202 OM 2202 OM OM1 2202 -0.550000 15.99940
2203 OM 2203 OM OM1 2203 -0.550000 15.99940
2204 OM 2204 OM OM1 2204 -0.550000 15.99940
2205 OM 2205 OM OM1 2205 -0.550000 15.99940
2206 OM 2206 OM OM1 2206 -0.550000 15.99940
2207 OM 2207 OM OM1 2207 -0.550000 15.99940
2208 OM 2208 OM OM1 2208 -0.550000 15.99940
2209 OM 2209 OM OM1 2209 -0.550000 15.99940
2210 OM 2210 OM OM1 2210 -0.550000 15.99940
2211 OM 2211 OM OM1 2211 -0.550000 15.99940
2212 OM 2212 OM OM1 2212 -0.550000 15.99940
2213 OM 2213 OM OM1 2213 -0.550000 15.99940
2214 OM 2214 OM OM1 2214 -0.550000 15.99940
2215 OM 2215 OM OM1 2215 -0.550000 15.99940
2216 OM 2216 OM OM1 2216 -0.550000 15.99940
2217 OM 2217 OM OM1 2217 -0.550000 15.99940
2218 OM 2218 OM OM1 2218 -0.550000 15.99940
2219 OM 2219 OM OM1 2219 -0.550000 15.99940
2220 OM 2220 OM OM1 2220 -0.550000 15.99940
2221 OM 2221 OM OM1 2221 -0.550000 15.99940
2222 OM 2222 OM OM1 2222 -0.550000 15.99940
2223 OM 2223 OM OM1 2223 -0.550000 15.99940
2224 OM 2224 OM OM1 2224 -0.550000 15.99940
2225 OM 2225 OM OM1 2225 -0.550000 15.99940
2226 OM 2226 OM OM1 2226 -0.550000 15.99940
2227 OM 2227 OM OM1 2227 -0.550000 15.99940
2228 OM 2228 OM OM1 2228 -0.550000 15.99940
2229 OM 2229 OM OM1 2229 -0.550000 15.99940
2230 OM 2230 OM OM1 2230 -0.550000 15.99940
2231 OM 2231 OM OM1 2231 -0.550000 15.99940
2232 OM 2232 OM OM1 2232 -0.550000 15.99940
2233 OM 2233 OM OM1 2233 -0.550000 15.99940
2234 OM 2234 OM OM1 2234 -0.550000 15.99940
2235 OM 2235 OM OM1 2235 -0.550000 15.99940
2236 OM 2236 OM OM1 2236 -0.550000 15.99940
2237 OM 2237 OM OM1 2237 -0.550000 15.99940
2238 OM 2238 OM OM1 2238 -0.550000 15.99940
2239 OM 2239 OM OM1 2239 -0.550000 15.99940
2240 OM 2240 OM OM1 2240 -0.550000 15.99940
2241 OM 2241 OM OM1 2241 -0.550000 15.99940
2242 OM 2242 OM OM1 2242 -0.550000 15.99940
2243 OM 2243 OM OM1 2243 -0.550000 15.99940
2244 OM 2244 OM OM1 2244 -0.550000 15.99940
2245 OM 2245 OM OM1 2245 -0.550000 15.99940
2246 OM 2246 OM OM1 2246 -0.550000 15.99940
2247 OM 2247 OM OM1 2247 -0.550000 15.99940
2248 OM 2248 OM OM1 2248 -0.550000 15.99940
2249 OM 2249 OM OM1 2249 -0.550000 15.99940
2250 OM 2250 OM OM1 2250 -0.550000 15.99940
2251 OM 2251 OM OM1 2251 -0.550000 15.99940
2252 OM 2252 OM OM1 2252 -0.550000 15.99940
2253 OM 2253 OM OM1 2253 -0.550000 15.99940
2254 OM 2254 OM OM1 2254 -0.550000 15.99940
2255 OM 2255 OM OM1 2255 -0.550000 15.99940
2256 OM 2256 OM OM1 2256 -0.550000 15.99940
2257 OM 2257 OM OM1 2257 -0.550000 15.99940
2258 OM 2258 OM OM1 2258 -0.550000 15.99940
2259 OM 2259 OM OM1 2259 -0.550000 15.99940
2260 OM 2260 OM OM1 2260 -0.550000 15.99940
2261 OM 2261 OM OM1 2261 -0.550000 15.99940
2262 OM 2262 OM OM1 2262 -0.550000 15.99940
2263 OM 2263 OM OM1 2263 -0.550000 15.99940
2264 OM 2264 OM OM1 2264 -0.550000 15.99940
2265 OM 2265 OM OM1 2265 -0.550000 15.99940
2266 OM 2266 OM OM1 2266 -0.550000 15.99940
2267 OM 2267 OM OM1 2267 -0.550000 15.99940
2268 OM 2268 OM OM1 2268 -0.550000 15.99940
2269 OM 2269 OM OM1 2269 -0.550000 15.99940
2270 OM 2270 OM OM1 2270 -0.550000 15.99940
2271 OM 2271 OM OM1 2271 -0.550000 15.99940
2272 OM 2272 OM OM1 2272 -0.550000 15.99940
2273 OM 2273 OM OM1 2273 -0.550000 15.99940
2274 OM 2274 OM OM1 2274 -0.550000 15.99940
2275 OM 2275 OM OM1 2275 -0.550000 15.99940
2276 OM 2276 OM OM1 2276 -0.550000 15.99940
2277 OM 2277 OM OM1 2277 -0.550000 15.99940
2278 OM 2278 OM OM1 2278 -0.550000 15.99940
2279 OM 2279 OM OM1 2279 -0.550000 15.99940
2280 OM 2280 OM OM1 2280 -0.550000 15.99940
2281 OM 2281 OM OM1 2281 -0.550000 15.99940
2282 OM 2282 OM OM1 2282 -0.550000 15.99940
2283 OM 2283 OM OM1 2283 -0.550000 15.99940
2284 OM 2284 OM OM1 2284 -0.550000 15.99940
2285 OM 2285 OM OM1 2285 -0.550000 15.99940
2286 OM 2286 OM OM1 2286 -0.550000 15.99940
2287 OM 2287 OM OM1 2287 -0.550000 15.99940
2288 OM 2288 OM OM1 2288 -0.550000 15.99940
2289 OM 2289 OM OM1 2289 -0.550000 15.99940
2290 OM 2290 OM OM1 2290 -0.550000 15.99940
2291 OM 2291 OM OM1 2291 -0.550000 15.99940
2292 OM 2292 OM OM1 2292 -0.550000 15.99940
2293 OM 2293 OM OM1 2293 -0.550000 15.99940
2294 OM 2294 OM OM1 2294 -0.550000 15.99940
2295 OM 2295 OM OM1 2295 -0.550000 15.99940
2296 OM 2296 OM OM1 2296 -0.550000 15.99940
2297 OM 2297 OM OM1 2297 -0.550000 15.99940
2298 OM 2298 OM OM1 2298 -0.550000 15.99940
2299 OM 2299 OM OM1 2299 -0.550000 15.99940
2300 OM 2300 OM OM1 2300 -0.550000 15.99940
2301 OM 2301 OM OM1 2301 -0.550000 15.99940
2302 OM 2302 OM OM1 2302 -0.550000 15.99940
2303 OM 2303 OM OM1 2303 -0.550000 15.99940
2304 OM 2304 OM OM1 2304 -0.550000 15.99940
2305 OM 2305 OM OM1 2305 -0.550000 15.99940
2306 OM 2306 OM OM1 2306 -0.550000 15.99940
2307 OM 2307 OM OM1 2307 -0.550000 15.99940
2308 OM 2308 OM OM1 2308 -0.550000 15.99940
2309 OM 2309 OM OM1 2309 -0.550000 15.99940
2310 OM 2310 OM OM1 2310 -0.550000 15.99940
2311 OM 2311 OM OM1 2311 -0.550000 15.99940
2312 OM 2312 OM OM1 2312 -0.550000 15.99940
2313 OM 2313 OM OM1 2313 -0.550000 15.99940
2314 OM 2314 OM OM1 2314 -0.550000 15.99940
2315 OM 2315 OM OM1 2315 -0.550000 15.99940
2316 OM 2316 OM OM1 2316 -0.550000 15.99940
2317 OM 2317 OM OM1 2317 -0.550000 15.99940
2318 OM 2318 OM OM1 2318 -0.550000 15.99940
2319 OM 2319 OM OM1 2319 -0.550000 15.99940
2320 OM 2320 OM OM1 2320 -0.550000 15.99940
2321 OM 2321 OM OM1 2321 -0.550000 15.99940
2322 OM 2322 OM OM1 2322 -0.550000 15.99940
2323 OM 2323 OM OM1 2323 -0.550000 15.99940
2324 OM 2324 OM OM1 2324 -0.550000 15.99940
2325 OM 2325 OM OM1 2325 -0.550000 15.99940
2326 OM 2326 OM OM1 2326 -0.550000 15.99940
2327 OM 2327 OM OM1 2327 -0.550000 15.99940
2328 OM 2328 OM OM1 2328 -0.550000 15.99940
2329 OM 2329 OM OM1 2329 -0.550000 15.99940
2330 OM 2330 OM OM1 2330 -0.550000 15.99940
2331 OM 2331 OM OM1 2331 -0.550000 15.99940
2332 OM 2332 OM OM1 2332 -0.550000 15.99940
2333 OM 2333 OM OM1 2333 -0.550000 15.99940
2334 OM 2334 OM OM1 2334 -0.550000 15.99940
2335 OM 2335 OM OM1 2335 -0.550000 15.99940
2336 OM 2336 OM OM1 2336 -0.550000 15.99940
2337 OM 2337 OM OM1 2337 -0.550000 15.99940
2338 OM 2338 OM OM1 2338 -0.550000 15.99940
2339 OM 2339 OM OM1 2339 -0.550000 15.99940
2340 OM 2340 OM OM1 2340 -0.550000 15.99940
2341 OM 2341 OM OM1 2341 -0.550000 15.99940
2342 OM 2342 OM OM1 2342 -0.550000 15.99940
2343 OM 2343 OM OM1 2343 -0.550000 15.99940
2344 OM 2344 OM OM1 2344 -0.550000 15.99940
2345 OM 2345 OM OM1 2345 -0.550000 15.99940
2346 OM 2346 OM OM1 2346 -0.550000 15.99940
2347 OM 2347 OM OM1 2347 -0.550000 15.99940
2348 OM 2348 OM OM1 2348 -0.550000 15.99940
2349 OM 2349 OM OM1 2349 -0.550000 15.99940
2350 OM 2350 OM OM1 2350 -0.550000 15.99940
2351 OM 2351 OM OM1 2351 -0.550000 15.99940
2352 OM 2352 OM OM1 2352 -0.550000 15.99940
2353 OM 2353 OM OM1 2353 -0.550000 15.99940
2354 OM 2354 OM OM1 2354 -0.550000 15.99940
2355 OM 2355 OM OM1 2355 -0.550000 15.99940
2356 OM 2356 OM OM1 2356 -0.550000 15.99940
2357 OM 2357 OM OM1 2357 -0.550000 15.99940
2358 OM 2358 OM OM1 2358 -0.550000 15.99940
2359 OM 2359 OM OM1 2359 -0.550000 15.99940
2360 OM 2360 OM OM1 2360 -0.550000 15.99940
2361 OM 2361 OM OM1 2361 -0.550000 15.99940
2362 OM 2362 OM OM1 2362 -0.550000 15.99940
2363 OM 2363 OM OM1 2363 -0.550000 15.99940
2364 OM 2364 OM OM1 2364 -0.550000 15.99940
2365 OM 2365 OM OM1 2365 -0.550000 15.99940
2366 OM 2366 OM OM1 2366 -0.550000 15.99940
2367 OM 2367 OM OM1 2367 -0.550000 15.99940
2368 OM 2368 OM OM1 2368 -0.550000 15.99940
2369 OM 2369 OM OM1 2369 -0.550000 15.99940
2370 OM 2370 OM OM1 2370 -0.550000 15.99940
2371 OM 2371 OM OM1 2371 -0.550000 15.99940
2372 OM 2372 OM OM1 2372 -0.550000 15.99940
2373 OM 2373 OM OM1 2373 -0.550000 15.99940
2374 OM 2374 OM OM1 2374 -0.550000 15.99940
2375 OM 2375 OM OM1 2375 -0.550000 15.99940
2376 OM 2376 OM OM1 2376 -0.550000 15.99940
2377 OM 2377 OM OM1 2377 -0.550000 15.99940
2378 OM 2378 OM OM1 2378 -0.550000 15.99940
2379 OM 2379 OM OM1 2379 -0.550000 15.99940
2380 OM 2380 OM OM1 2380 -0.550000 15.99940
2381 OM 2381 OM OM1 2381 -0.550000 15.99940
2382 OM 2382 OM OM1 2382 -0.550000 15.99940
2383 OM 2383 OM OM1 2383 -0.550000 15.99940
2384 OM 2384 OM OM1 2384 -0.550000 15.99940
2385 OM 2385 OM OM1 2385 -0.550000 15.99940
2386 OM 2386 OM OM1 2386 -0.550000 15.99940
2387 OM 2387 OM OM1 2387 -0.550000 15.99940
2388 OM 2388 OM OM1 2388 -0.550000 15.99940
2389 OM 2389 OM OM1 2389 -0.550000 15.99940
2390 OM 2390 OM OM1 2390 -0.550000 15.99940
2391 OM 2391 OM OM1 2391 -0.550000 15.99940
2392 OM 2392 OM OM1 2392 -0.550000 15.99940
2393 OM 2393 OM OM1 2393 -0.550000 15.99940
2394 OM 2394 OM OM1 2394 -0.550000 15.99940
2395 OM 2395 OM OM1 2395 -0.550000 15.99940
2396 OM 2396 OM OM1 2396 -0.550000 15.99940
2397 OM 2397 OM OM1 2397 -0.550000 15.99940
2398 OM 2398 OM OM1 2398 -0.550000 15.99940
2399 OM 2399 OM OM1 2399 -0.550000 15.99940
2400 OM 2400 OM OM1 2400 -0.550000 15.99940
2401 OM 2401 OM OM1 2401 -0.550000 15.99940
2402 OM 2402 OM OM1 2402 -0.550000 15.99940
2403 OM 2403 OM OM1 2403 -0.550000 15.99940
2404 OM 2404 OM OM1 2404 -0.550000 15.99940
2405 OM 2405 OM OM1 2405 -0.550000 15.99940
2406 OM 2406 OM OM1 2406 -0.550000 15.99940
2407 OM 2407 OM OM1 2407 -0.550000 15.99940
2408 OM 2408 OM OM1 2408 -0.550000 15.99940
2409 OM 2409 OM OM1 2409 -0.550000 15.99940
2410 OM 2410 OM OM1 2410 -0.550000 15.99940
2411 OM 2411 OM OM1 2411 -0.550000 15.99940
2412 OM 2412 OM OM1 2412 -0.550000 15.99940
2413 OM 2413 OM OM1 2413 -0.550000 15.99940
2414 OM 2414 OM OM1 2414 -0.550000 15.99940
2415 OM 2415 OM OM1 2415 -0.550000 15.99940
2416 OM 2416 OM OM1 2416 -0.550000 15.99940
2417 OM 2417 OM OM1 2417 -0.550000 15.99940
2418 OM 2418 OM OM1 2418 -0.550000 15.99940
2419 OM 2419 OM OM1 2419 -0.550000 15.99940
2420 OM 2420 OM OM1 2420 -0.550000 15.99940
2421 OM 2421 OM OM1 2421 -0.550000 15.99940
2422 OM 2422 OM OM1 2422 -0.550000 15.99940
2423 OM 2423 OM OM1 2423 -0.550000 15.99940
2424 OM 2424 OM OM1 2424 -0.550000 15.99940
2425 OM 2425 OM OM1 2425 -0.550000 15.99940
2426 OM 2426 OM OM1 2426 -0.550000 15.99940
2427 OM 2427 OM OM1 2427 -0.550000 15.99940
2428 OM 2428 OM OM1 2428 -0.550000 15.99940
2429 OM 2429 OM OM1 2429 -0.550000 15.99940
2430 OM 2430 OM OM1 2430 -0.550000 15.99940
2431 OM 2431 OM OM1 2431 -0.550000 15.99940
2432 OM 2432 OM OM1 2432 -0.550000 15.99940
2433 OM 2433 OM OM1 2433 -0.550000 15.99940
2434 OM 2434 OM OM1 2434 -0.550000 15.99940
2435 OM 2435 OM OM1 2435 -0.550000 15.99940
2436 OM 2436 OM OM1 2436 -0.550000 15.99940
2437 OM 2437 OM OM1 2437 -0.550000 15.99940
2438 OM 2438 OM OM1 2438 -0.550000 15.99940
2439 OM 2439 OM OM1 2439 -0.550000 15.99940
2440 OM 2440 OM OM1 2440 -0.550000 15.99940
2441 OM 2441 OM OM1 2441 -0.550000 15.99940
2442 OM 2442 OM OM1 2442 -0.550000 15.99940
2443 OM 2443 OM OM1 2443 -0.550000 15.99940
2444 OM 2444 OM OM1 2444 -0.550000 15.99940
2445 OM 2445 OM OM1 2445 -0.550000 15.99940
2446 OM 2446 OM OM1 2446 -0.550000 15.99940
2447 OM 2447 OM OM1 2447 -0.550000 15.99940
2448 OM 2448 OM OM1 2448 -0.550000 15.99940
2449 OM 2449 OM OM1 2449 -0.550000 15.99940
2450 OM 2450 OM OM1 2450 -0.550000 15.99940
2451 OM 2451 OM OM1 2451 -0.550000 15.99940
2452 OM 2452 OM OM1 2452 -0.550000 15.99940
2453 OM 2453 OM OM1 2453 -0.550000 15.99940
2454 OM 2454 OM OM1 2454 -0.550000 15.99940
2455 OM 2455 OM OM1 2455 -0.550000 15.99940
2456 OM 2456 OM OM1 2456 -0.550000 15.99940
2457 OM 2457 OM OM1 2457 -0.550000 15.99940
2458 OM 2458 OM OM1 2458 -0.550000 15.99940
2459 OM 2459 OM OM1 2459 -0.550000 15.99940
2460 OM 2460 OM OM1 2460 -0.550000 15.99940
2461 OM 2461 OM OM1 2461 -0.550000 15.99940
2462 OM 2462 OM OM1 2462 -0.550000 15.99940
2463 OM 2463 OM OM1 2463 -0.550000 15.99940
2464 OM 2464 OM OM1 2464 -0.550000 15.99940
2465 OM 2465 OM OM1 2465 -0.550000 15.99940
2466 OM 2466 OM OM1 2466 -0.550000 15.99940
2467 OM 2467 OM OM1 2467 -0.550000 15.99940
2468 OM 2468 OM OM1 2468 -0.550000 15.99940
2469 OM 2469 OM OM1 2469 -0.550000 15.99940
2470 OM 2470 OM OM1 2470 -0.550000 15.99940
2471 OM 2471 OM OM1 2471 -0.550000 15.99940
2472 OM 2472 OM OM1 2472 -0.550000 15.99940
2473 OM 2473 OM OM1 2473 -0.550000 15.99940
2474 OM 2474 OM OM1 2474 -0.550000 15.99940
2475 OM 2475 OM OM1 2475 -0.550000 15.99940
2476 OM 2476 OM OM1 2476 -0.550000 15.99940
2477 OM 2477 OM OM1 2477 -0.550000 15.99940
2478 OM 2478 OM OM1 2478 -0.550000 15.99940
2479 OM 2479 OM OM1 2479 -0.550000 15.99940
2480 OM 2480 OM OM1 2480 -0.550000 15.99940
2481 OM 2481 OM OM1 2481 -0.550000 15.99940
2482 OM 2482 OM OM1 2482 -0.550000 15.99940
2483 OM 2483 OM OM1 2483 -0.550000 15.99940
2484 OM 2484 OM OM1 2484 -0.550000 15.99940
2485 OM 2485 OM OM1 2485 -0.550000 15.99940
2486 OM 2486 OM OM1 2486 -0.550000 15.99940
2487 OM 2487 OM OM1 2487 -0.550000 15.99940
2488 OM 2488 OM OM1 2488 -0.550000 15.99940
2489 OM 2489 OM OM1 2489 -0.550000 15.99940
2490 OM 2490 OM OM1 2490 -0.550000 15.99940
2491 OM 2491 OM OM1 2491 -0.550000 15.99940
2492 OM 2492 OM OM1 2492 -0.550000 15.99940
2493 OM 2493 OM OM1 2493 -0.550000 15.99940
2494 OM 2494 OM OM1 2494 -0.550000 15.99940
2495 OM 2495 OM OM1 2495 -0.550000 15.99940
2496 OM 2496 OM OM1 2496 -0.550000 15.99940
2497 OM 2497 OM OM1 2497 -0.550000 15.99940
2498 OM 2498 OM OM1 2498 -0.550000 15.99940
2499 OM 2499 OM OM1 2499 -0.550000 15.99940
2500 OM 2500 OM OM1 2500 -0.550000 15.99940
2501 OM 2501 OM OM1 2501 -0.550000 15.99940
2502 OM 2502 OM OM1 2502 -0.550000 15.99940
2503 OM 2503 OM OM1 2503 -0.550000 15.99940
2504 OM 2504 OM OM1 2504 -0.550000 15.99940
2505 OM 2505 OM OM1 2505 -0.550000 15.99940
2506 OM 2506 OM OM1 2506 -0.550000 15.99940
2507 OM 2507 OM OM1 2507 -0.550000 15.99940
2508 OM 2508 OM OM1 2508 -0.550000 15.99940
2509 OM 2509 OM OM1 2509 -0.550000 15.99940
2510 OM 2510 OM OM1 2510 -0.550000 15.99940
2511 OM 2511 OM OM1 2511 -0.550000 15.99940
2512 OM 2512 OM OM1 2512 -0.550000 15.99940
2513 OM 2513 OM OM1 2513 -0.550000 15.99940
2514 OM 2514 OM OM1 2514 -0.550000 15.99940
2515 OM 2515 OM OM1 2515 -0.550000 15.99940
2516 OM 2516 OM OM1 2516 -0.550000 15.99940
2517 OM 2517 OM OM1 2517 -0.550000 15.99940
2518 OM 2518 OM OM1 2518 -0.550000 15.99940
2519 OM 2519 OM OM1 2519 -0.550000 15.99940
2520 OM 2520 OM OM1 2520 -0.550000 15.99940
2521 OM 2521 OM OM1 2521 -0.550000 15.99940
2522 OM 2522 OM OM1 2522 -0.550000 15.99940
2523 OM 2523 OM OM1 2523 -0.550000 15.99940
2524 OM 2524 OM OM1 2524 -0.550000 15.99940
2525 OM 2525 OM OM1 2525 -0.550000 15.99940
2526 OM 2526 OM OM1 2526 -0.550000 15.99940
2527 OM 2527 OM OM1 2527 -0.550000 15.99940
2528 OM 2528 OM OM1 2528 -0.550000 15.99940
2529 OM 2529 OM OM1 2529 -0.550000 15.99940
2530 OM 2530 OM OM1 2530 -0.550000 15.99940
2531 OM 2531 OM OM1 2531 -0.550000 15.99940
2532 OM 2532 OM OM1 2532 -0.550000 15.99940
2533 OM 2533 OM OM1 2533 -0.550000 15.99940
2534 OM 2534 OM OM1 2534 -0.550000 15.99940
2535 OM 2535 OM OM1 2535 -0.550000 15.99940
2536 OM 2536 OM OM1 2536 -0.550000 15.99940
2537 OM 2537 OM OM1 2537 -0.550000 15.99940
2538 OM 2538 OM OM1 2538 -0.550000 15.99940
2539 OM 2539 OM OM1 2539 -0.550000 15.99940
2540 OM 2540 OM OM1 2540 -0.550000 15.99940
2541 OM 2541 OM OM1 2541 -0.550000 15.99940
2542 OM 2542 OM OM1 2542 -0.550000 15.99940
2543 OM 2543 OM OM1 2543 -0.550000 15.99940
2544 OM 2544 OM OM1 2544 -0.550000 15.99940
2545 OM 2545 OM OM1 2545 -0.550000 15.99940
2546 OM 2546 OM OM1 2546 -0.550000 15.99940
2547 OM 2547 OM OM1 2547 -0.550000 15.99940
2548 OM 2548 OM OM1 2548 -0.550000 15.99940
2549 OM 2549 OM OM1 2549 -0.550000 15.99940
2550 OM 2550 OM OM1 2550 -0.550000 15.99940
2551 OM 2551 OM OM1 2551 -0.550000 15.99940
2552 OM 2552 OM OM1 2552 -0.550000 15.99940
2553 OM 2553 OM OM1 2553 -0.550000 15.99940
2554 OM 2554 OM OM1 2554 -0.550000 15.99940
2555 OM 2555 OM OM1 2555 -0.550000 15.99940
2556 OM 2556 OM OM1 2556 -0.550000 15.99940
2557 OM 2557 OM OM1 2557 -0.550000 15.99940
2558 OM 2558 OM OM1 2558 -0.550000 15.99940
2559 OM 2559 OM OM1 2559 -0.550000 15.99940
2560 OM 2560 OM OM1 2560 -0.550000 15.99940
2561 OM 2561 OM OM1 2561 -0.550000 15.99940
2562 OM 2562 OM OM1 2562 -0.550000 15.99940
2563 OM 2563 OM OM1 2563 -0.550000 15.99940
2564 OM 2564 OM OM1 2564 -0.550000 15.99940
2565 OM 2565 OM OM1 2565 -0.550000 15.99940
2566 OM 2566 OM OM1 2566 -0.550000 15.99940
2567 OM 2567 OM OM1 2567 -0.550000 15.99940
2568 OM 2568 OM OM1 2568 -0.550000 15.99940
2569 OM 2569 OM OM1 2569 -0.550000 15.99940
2570 OM 2570 OM OM1 2570 -0.550000 15.99940
2571 OM 2571 OM OM1 2571 -0.550000 15.99940
2572 OM 2572 OM OM1 2572 -0.550000 15.99940
2573 OM 2573 OM OM1 2573 -0.550000 15.99940
2574 OM 2574 OM OM1 2574 -0.550000 15.99940
2575 OM 2575 OM OM1 2575 -0.550000 15.99940
2576 OM 2576 OM OM1 2576 -0.550000 15.99940
2577 OM 2577 OM OM1 2577 -0.550000 15.99940
2578 OM 2578 OM OM1 2578 -0.550000 15.99940
2579 OM 2579 OM OM1 2579 -0.550000 15.99940
2580 OM 2580 OM OM1 2580 -0.550000 15.99940
2581 OM 2581 OM OM1 2581 -0.550000 15.99940
2582 OM 2582 OM OM1 2582 -0.550000 15.99940
2583 OM 2583 OM OM1 2583 -0.550000 15.99940
2584 OM 2584 OM OM1 2584 -0.550000 15.99940
2585 OM 2585 OM OM1 2585 -0.550000 15.99940
2586 OM 2586 OM OM1 2586 -0.550000 15.99940
2587 OM 2587 OM OM1 2587 -0.550000 15.99940
2588 OM 2588 OM OM1 2588 -0.550000 15.99940
2589 OM 2589 OM OM1 2589 -0.550000 15.99940
2590 OM 2590 OM OM1 2590 -0.550000 15.99940
2591 OM 2591 OM OM1 2591 -0.550000 15.99940
2592 OM 2592 OM OM1 2592 -0.550000 15.99940
2593 OM 2593 OM OM1 2593 -0.550000 15.99940
2594 OM 2594 OM OM1 2594 -0.550000 15.99940
2595 OM 2595 OM OM1 2595 -0.550000 15.99940
2596 OM 2596 OM OM1 2596 -0.550000 15.99940
2597 OM 2597 OM OM1 2597 -0.550000 15.99940
2598 OM 2598 OM OM1 2598 -0.550000 15.99940
2599 OM 2599 OM OM1 2599 -0.550000 15.99940
2600 OM 2600 OM OM1 2600 -0.550000 15.99940
2601 OM 2601 OM OM1 2601 -0.550000 15.99940
2602 OM 2602 OM OM1 2602 -0.550000 15.99940
2603 OM 2603 OM OM1 2603 -0.550000 15.99940
2604 OM 2604 OM OM1 2604 -0.550000 15.99940
2605 OM 2605 OM OM1 2605 -0.550000 15.99940
2606 OM 2606 OM OM1 2606 -0.550000 15.99940
2607 OM 2607 OM OM1 2607 -0.550000 15.99940
2608 OM 2608 OM OM1 2608 -0.550000 15.99940
2609 OM 2609 OM OM1 2609 -0.550000 15.99940
2610 OM 2610 OM OM1 2610 -0.550000 15.99940
2611 OM 2611 OM OM1 2611 -0.550000 15.99940
2612 OM 2612 OM OM1 2612 -0.550000 15.99940
2613 OM 2613 OM OM1 2613 -0.550000 15.99940
2614 OM 2614 OM OM1 2614 -0.550000 15.99940
2615 OM 2615 OM OM1 2615 -0.550000 15.99940
2616 OM 2616 OM OM1 2616 -0.550000 15.99940
2617 OM 2617 OM OM1 2617 -0.550000 15.99940
2618 OM 2618 OM OM1 2618 -0.550000 15.99940
2619 OM 2619 OM OM1 2619 -0.550000 15.99940
2620 OM 2620 OM OM1 2620 -0.550000 15.99940
2621 OM 2621 OM OM1 2621 -0.550000 15.99940
2622 OM 2622 OM OM1 2622 -0.550000 15.99940
2623 OM 2623 OM OM1 2623 -0.550000 15.99940
2624 OM 2624 OM OM1 2624 -0.550000 15.99940
2625 OM 2625 OM OM1 2625 -0.550000 15.99940
2626 OM 2626 OM OM1 2626 -0.550000 15.99940
2627 OM 2627 OM OM1 2627 -0.550000 15.99940
2628 OM 2628 OM OM1 2628 -0.550000 15.99940
2629 OM 2629 OM OM1 2629 -0.550000 15.99940
2630 OM 2630 OM OM1 2630 -0.550000 15.99940
2631 OM 2631 OM OM1 2631 -0.550000 15.99940
2632 OM 2632 OM OM1 2632 -0.550000 15.99940
2633 OM 2633 OM OM1 2633 -0.550000 15.99940
2634 OM 2634 OM OM1 2634 -0.550000 15.99940
2635 OM 2635 OM OM1 2635 -0.550000 15.99940
2636 OM 2636 OM OM1 2636 -0.550000 15.99940
2637 OM 2637 OM OM1 2637 -0.550000 15.99940
2638 OM 2638 OM OM1 2638 -0.550000 15.99940
2639 OM 2639 OM OM1 2639 -0.550000 15.99940
2640 OM 2640 OM OM1 2640 -0.550000 15.99940
2641 OM 2641 OM OM1 2641 -0.550000 15.99940
2642 OM 2642 OM OM1 2642 -0.550000 15.99940
2643 OM 2643 OM OM1 2643 -0.550000 15.99940
2644 OM 2644 OM OM1 2644 -0.550000 15.99940
2645 OM 2645 OM OM1 2645 -0.550000 15.99940
2646 OM 2646 OM OM1 2646 -0.550000 15.99940
2647 OM 2647 OM OM1 2647 -0.550000 15.99940
2648 OM 2648 OM OM1 2648 -0.550000 15.99940
2649 OM 2649 OM OM1 2649 -0.550000 15.99940
2650 OM 2650 OM OM1 2650 -0.550000 15.99940
2651 OM 2651 OM OM1 2651 -0.550000 15.99940
2652 OM 2652 OM OM1 2652 -0.550000 15.99940
2653 OM 2653 OM OM1 2653 -0.550000 15.99940
2654 OM 2654 OM OM1 2654 -0.550000 15.99940
2655 OM 2655 OM OM1 2655 -0.550000 15.99940
2656 OM 2656 OM OM1 2656 -0.550000 15.99940
2657 OM 2657 OM OM1 2657 -0.550000 15.99940
2658 OM 2658 OM OM1 2658 -0.550000 15.99940
2659 OM 2659 OM OM1 2659 -0.550000 15.99940
2660 OM 2660 OM OM1 2660 -0.550000 15.99940
2661 OM 2661 OM OM1 2661 -0.550000 15.99940
2662 OM 2662 OM OM1 2662 -0.550000 15.99940
2663 OM 2663 OM OM1 2663 -0.550000 15.99940
2664 OM 2664 OM OM1 2664 -0.550000 15.99940
2665 OM 2665 OM OM1 2665 -0.550000 15.99940
2666 OM 2666 OM OM1 2666 -0.550000 15.99940
2667 OM 2667 OM OM1 2667 -0.550000 15.99940
2668 OM 2668 OM OM1 2668 -0.550000 15.99940
2669 OM 2669 OM OM1 2669 -0.550000 15.99940
2670 OM 2670 OM OM1 2670 -0.550000 15.99940
2671 OM 2671 OM OM1 2671 -0.550000 15.99940
2672 OM 2672 OM OM1 2672 -0.550000 15.99940
2673 OM 2673 OM OM1 2673 -0.550000 15.99940
2674 OM 2674 OM OM1 2674 -0.550000 15.99940
2675 OM 2675 OM OM1 2675 -0.550000 15.99940
2676 OM 2676 OM OM1 2676 -0.550000 15.99940
2677 OM 2677 OM OM1 2677 -0.550000 15.99940
2678 OM 2678 OM OM1 2678 -0.550000 15.99940
2679 OM 2679 OM OM1 2679 -0.550000 15.99940
2680 OM 2680 OM OM1 2680 -0.550000 15.99940
2681 OM 2681 OM OM1 2681 -0.550000 15.99940
2682 OM 2682 OM OM1 2682 -0.550000 15.99940
2683 OM 2683 OM OM1 2683 -0.550000 15.99940
2684 OM 2684 OM OM1 2684 -0.550000 15.99940
2685 OM 2685 OM OM1 2685 -0.550000 15.99940
2686 OM 2686 OM OM1 2686 -0.550000 15.99940
2687 OM 2687 OM OM1 2687 -0.550000 15.99940
2688 OM 2688 OM OM1 2688 -0.550000 15.99940
2689 OM 2689 OM OM1 2689 -0.550000 15.99940
2690 OM 2690 OM OM1 2690 -0.550000 15.99940
2691 OM 2691 OM OM1 2691 -0.550000 15.99940
2692 OM 2692 OM OM1 2692 -0.550000 15.99940
2693 OM 2693 OM OM1 2693 -0.550000 15.99940
2694 OM 2694 OM OM1 2694 -0.550000 15.99940
2695 OM 2695 OM OM1 2695 -0.550000 15.99940
2696 OM 2696 OM OM1 2696 -0.550000 15.99940
2697 OM 2697 OM OM1 2697 -0.550000 15.99940
2698 OM 2698 OM OM1 2698 -0.550000 15.99940
2699 OM 2699 OM OM1 2699 -0.550000 15.99940
2700 OM 2700 OM OM1 2700 -0.550000 15.99940
2701 OM 2701 OM OM1 2701 -0.550000 15.99940
2702 OM 2702 OM OM1 2702 -0.550000 15.99940
2703 OM 2703 OM OM1 2703 -0.550000 15.99940
2704 OM 2704 OM OM1 2704 -0.550000 15.99940
2705 OM 2705 OM OM1 2705 -0.550000 15.99940
2706 OM 2706 OM OM1 2706 -0.550000 15.99940
2707 OM 2707 OM OM1 2707 -0.550000 15.99940
2708 OM 2708 OM OM1 2708 -0.550000 15.99940
2709 OM 2709 OM OM1 2709 -0.550000 15.99940
2710 OM 2710 OM OM1 2710 -0.550000 15.99940
2711 OM 2711 OM OM1 2711 -0.550000 15.99940
2712 OM 2712 OM OM1 2712 -0.550000 15.99940
2713 OM 2713 OM OM1 2713 -0.550000 15.99940
2714 OM 2714 OM OM1 2714 -0.550000 15.99940
2715 OM 2715 OM OM1 2715 -0.550000 15.99940
2716 OM 2716 OM OM1 2716 -0.550000 15.99940
2717 OM 2717 OM OM1 2717 -0.550000 15.99940
2718 OM 2718 OM OM1 2718 -0.550000 15.99940
2719 OM 2719 OM OM1 2719 -0.550000 15.99940
2720 OM 2720 OM OM1 2720 -0.550000 15.99940
2721 OM 2721 OM OM1 2721 -0.550000 15.99940
2722 OM 2722 OM OM1 2722 -0.550000 15.99940
2723 OM 2723 OM OM1 2723 -0.550000 15.99940
2724 OM 2724 OM OM1 2724 -0.550000 15.99940
2725 OM 2725 OM OM1 2725 -0.550000 15.99940
2726 OM 2726 OM OM1 2726 -0.550000 15.99940
2727 OM 2727 OM OM1 2727 -0.550000 15.99940
2728 OM 2728 OM OM1 2728 -0.550000 15.99940
2729 OM 2729 OM OM1 2729 -0.550000 15.99940
2730 OM 2730 OM OM1 2730 -0.550000 15.99940
2731 OM 2731 OM OM1 2731 -0.550000 15.99940
2732 OM 2732 OM OM1 2732 -0.550000 15.99940
2733 OM 2733 OM OM1 2733 -0.550000 15.99940
2734 OM 2734 OM OM1 2734 -0.550000 15.99940
2735 OM 2735 OM OM1 2735 -0.550000 15.99940
2736 OM 2736 OM OM1 2736 -0.550000 15.99940
2737 OM 2737 OM OM1 2737 -0.550000 15.99940
2738 OM 2738 OM OM1 2738 -0.550000 15.99940
2739 OM 2739 OM OM1 2739 -0.550000 15.99940
2740 OM 2740 OM OM1 2740 -0.550000 15.99940
2741 OM 2741 OM OM1 2741 -0.550000 15.99940
2742 OM 2742 OM OM1 2742 -0.550000 15.99940
2743 OM 2743 OM OM1 2743 -0.550000 15.99940
2744 OM 2744 OM OM1 2744 -0.550000 15.99940
2745 OM 2745 OM OM1 2745 -0.550000 15.99940
2746 OM 2746 OM OM1 2746 -0.550000 15.99940
2747 OM 2747 OM OM1 2747 -0.550000 15.99940
2748 OM 2748 OM OM1 2748 -0.550000 15.99940
2749 OM 2749 OM OM1 2749 -0.550000 15.99940
2750 OM 2750 OM OM1 2750 -0.550000 15.99940
2751 OM 2751 OM OM1 2751 -0.550000 15.99940
2752 OM 2752 OM OM1 2752 -0.550000 15.99940
2753 OM 2753 OM OM1 2753 -0.550000 15.99940
2754 OM 2754 OM OM1 2754 -0.550000 15.99940
2755 OM 2755 OM OM1 2755 -0.550000 15.99940
2756 OM 2756 OM OM1 2756 -0.550000 15.99940
2757 OM 2757 OM OM1 2757 -0.550000 15.99940
2758 OM 2758 OM OM1 2758 -0.550000 15.99940
2759 OM 2759 OM OM1 2759 -0.550000 15.99940
2760 OM 2760 OM OM1 2760 -0.550000 15.99940
2761 OM 2761 OM OM1 2761 -0.550000 15.99940
2762 OM 2762 OM OM1 2762 -0.550000 15.99940
2763 OM 2763 OM OM1 2763 -0.550000 15.99940
2764 OM 2764 OM OM1 2764 -0.550000 15.99940
2765 OM 2765 OM OM1 2765 -0.550000 15.99940
2766 OM 2766 OM OM1 2766 -0.550000 15.99940
2767 OM 2767 OM OM1 2767 -0.550000 15.99940
2768 OM 2768 OM OM1 2768 -0.550000 15.99940
2769 OM 2769 OM OM1 2769 -0.550000 15.99940
2770 OM 2770 OM OM1 2770 -0.550000 15.99940
2771 OM 2771 OM OM1 2771 -0.550000 15.99940
2772 OM 2772 OM OM1 2772 -0.550000 15.99940
2773 OM 2773 OM OM1 2773 -0.550000 15.99940
2774 OM 2774 OM OM1 2774 -0.550000 15.99940
2775 OM 2775 OM OM1 2775 -0.550000 15.99940
2776 OM 2776 OM OM1 2776 -0.550000 15.99940
2777 OM 2777 OM OM1 2777 -0.550000 15.99940
2778 OM 2778 OM OM1 2778 -0.550000 15.99940
2779 OM 2779 OM OM1 2779 -0.550000 15.99940
2780 OM 2780 OM OM1 2780 -0.550000 15.99940
2781 OM 2781 OM OM1 2781 -0.550000 15.99940
2782 OM 2782 OM OM1 2782 -0.550000 15.99940
2783 OM 2783 OM OM1 2783 -0.550000 15.99940
2784 OM 2784 OM OM1 2784 -0.550000 15.99940
2785 OM 2785 OM OM1 2785 -0.550000 15.99940
2786 OM 2786 OM OM1 2786 -0.550000 15.99940
2787 OM 2787 OM OM1 2787 -0.550000 15.99940
2788 OM 2788 OM OM1 2788 -0.550000 15.99940
2789 OM 2789 OM OM1 2789 -0.550000 15.99940
2790 OM 2790 OM OM1 2790 -0.550000 15.99940
2791 OM 2791 OM OM1 2791 -0.550000 15.99940
2792 OM 2792 OM OM1 2792 -0.550000 15.99940
2793 OM 2793 OM OM1 2793 -0.550000 15.99940
2794 OM 2794 OM OM1 2794 -0.550000 15.99940
2795 OM 2795 OM OM1 2795 -0.550000 15.99940
2796 OM 2796 OM OM1 2796 -0.550000 15.99940
2797 OM 2797 OM OM1 2797 -0.550000 15.99940
2798 OM 2798 OM OM1 2798 -0.550000 15.99940
2799 OM 2799 OM OM1 2799 -0.550000 15.99940
2800 OM 2800 OM OM1 2800 -0.550000 15.99940
2801 OM 2801 OM OM1 2801 -0.550000 15.99940
2802 OM 2802 OM OM1 2802 -0.550000 15.99940
2803 OM 2803 OM OM1 2803 -0.550000 15.99940
2804 OM 2804 OM OM1 2804 -0.550000 15.99940
2805 OM 2805 OM OM1 2805 -0.550000 15.99940
2806 OM 2806 OM OM1 2806 -0.550000 15.99940
2807 OM 2807 OM OM1 2807 -0.550000 15.99940
2808 OM 2808 OM OM1 2808 -0.550000 15.99940
2809 OM 2809 OM OM1 2809 -0.550000 15.99940
2810 OM 2810 OM OM1 2810 -0.550000 15.99940
2811 OM 2811 OM OM1 2811 -0.550000 15.99940
2812 OM 2812 OM OM1 2812 -0.550000 15.99940
2813 OM 2813 OM OM1 2813 -0.550000 15.99940
2814 OM 2814 OM OM1 2814 -0.550000 15.99940
2815 OM 2815 OM OM1 2815 -0.550000 15.99940
2816 OM 2816 OM OM1 2816 -0.550000 15.99940
2817 OM 2817 OM OM1 2817 -0.550000 15.99940
2818 OM 2818 OM OM1 2818 -0.550000 15.99940
2819 OM 2819 OM OM1 2819 -0.550000 15.99940
2820 OM 2820 OM OM1 2820 -0.550000 15.99940
2821 OM 2821 OM OM1 2821 -0.550000 15.99940
2822 OM 2822 OM OM1 2822 -0.550000 15.99940
2823 OM 2823 OM OM1 2823 -0.550000 15.99940
2824 OM 2824 OM OM1 2824 -0.550000 15.99940
2825 OM 2825 OM OM1 2825 -0.550000 15.99940
2826 OM 2826 OM OM1 2826 -0.550000 15.99940
2827 OM 2827 OM OM1 2827 -0.550000 15.99940
2828 OM 2828 OM OM1 2828 -0.550000 15.99940
2829 OM 2829 OM OM1 2829 -0.550000 15.99940
2830 OM 2830 OM OM1 2830 -0.550000 15.99940
2831 OM 2831 OM OM1 2831 -0.550000 15.99940
2832 OM 2832 OM OM1 2832 -0.550000 15.99940
2833 OM 2833 OM OM1 2833 -0.550000 15.99940
2834 OM 2834 OM OM1 2834 -0.550000 15.99940
2835 OM 2835 OM OM1 2835 -0.550000 15.99940
2836 OM 2836 OM OM1 2836 -0.550000 15.99940
2837 OM 2837 OM OM1 2837 -0.550000 15.99940
2838 OM 2838 OM OM1 2838 -0.550000 15.99940
2839 OM 2839 OM OM1 2839 -0.550000 15.99940
2840 OM 2840 OM OM1 2840 -0.550000 15.99940
2841 OM 2841 OM OM1 2841 -0.550000 15.99940
2842 OM 2842 OM OM1 2842 -0.550000 15.99940
2843 OM 2843 OM OM1 2843 -0.550000 15.99940
2844 OM 2844 OM OM1 2844 -0.550000 15.99940
2845 OM 2845 OM OM1 2845 -0.550000 15.99940
2846 OM 2846 OM OM1 2846 -0.550000 15.99940
2847 OM 2847 OM OM1 2847 -0.550000 15.99940
2848 OM 2848 OM OM1 2848 -0.550000 15.99940
2849 OM 2849 OM OM1 2849 -0.550000 15.99940
2850 OM 2850 OM OM1 2850 -0.550000 15.99940
2851 OM 2851 OM OM1 2851 -0.550000 15.99940
2852 OM 2852 OM OM1 2852 -0.550000 15.99940
2853 OM 2853 OM OM1 2853 -0.550000 15.99940
2854 OM 2854 OM OM1 2854 -0.550000 15.99940
2855 OM 2855 OM OM1 2855 -0.550000 15.99940
2856 OM 2856 OM OM1 2856 -0.550000 15.99940
2857 OM 2857 OM OM1 2857 -0.550000 15.99940
2858 OM 2858 OM OM1 2858 -0.550000 15.99940
2859 OM 2859 OM OM1 2859 -0.550000 15.99940
2860 OM 2860 OM OM1 2860 -0.550000 15.99940
2861 OM 2861 OM OM1 2861 -0.550000 15.99940
2862 OM 2862 OM OM1 2862 -0.550000 15.99940
2863 OM 2863 OM OM1 2863 -0.550000 15.99940
2864 OM 2864 OM OM1 2864 -0.550000 15.99940
2865 OM 2865 OM OM1 2865 -0.550000 15.99940
2866 OM 2866 OM OM1 2866 -0.550000 15.99940
2867 OM 2867 OM OM1 2867 -0.550000 15.99940
2868 OM 2868 OM OM1 2868 -0.550000 15.99940
2869 OM 2869 OM OM1 2869 -0.550000 15.99940
2870 OM 2870 OM OM1 2870 -0.550000 15.99940
2871 OM 2871 OM OM1 2871 -0.550000 15.99940
2872 OM 2872 OM OM1 2872 -0.550000 15.99940
2873 OM 2873 OM OM1 2873 -0.550000 15.99940
2874 OM 2874 OM OM1 2874 -0.550000 15.99940
2875 OM 2875 OM OM1 2875 -0.550000 15.99940
2876 OM 2876 OM OM1 2876 -0.550000 15.99940
2877 OM 2877 OM OM1 2877 -0.550000 15.99940
2878 OM 2878 OM OM1 2878 -0.550000 15.99940
2879 OM 2879 OM OM1 2879 -0.550000 15.99940
2880 OM 2880 OM OM1 2880 -0.550000 15.99940
2881 OM 2881 OM OM1 2881 -0.550000 15.99940
2882 OM 2882 OM OM1 2882 -0.550000 15.99940
2883 OM 2883 OM OM1 2883 -0.550000 15.99940
2884 OM 2884 OM OM1 2884 -0.550000 15.99940
2885 OM 2885 OM OM1 2885 -0.550000 15.99940
2886 OM 2886 OM OM1 2886 -0.550000 15.99940
2887 OM 2887 OM OM1 2887 -0.550000 15.99940
2888 OM 2888 OM OM1 2888 -0.550000 15.99940
2889 OM 2889 OM OM1 2889 -0.550000 15.99940
2890 OM 2890 OM OM1 2890 -0.550000 15.99940
2891 OM 2891 OM OM1 2891 -0.550000 15.99940
2892 OM 2892 OM OM1 2892 -0.550000 15.99940
2893 OM 2893 OM OM1 2893 -0.550000 15.99940
2894 OM 2894 OM OM1 2894 -0.550000 15.99940
2895 OM 2895 OM OM1 2895 -0.550000 15.99940
2896 OM 2896 OM OM1 2896 -0.550000 15.99940
2897 OM 2897 OM OM1 2897 -0.550000 15.99940
2898 OM 2898 OM OM1 2898 -0.550000 15.99940
2899 OM 2899 OM OM1 2899 -0.550000 15.99940
2900 OM 2900 OM OM1 2900 -0.550000 15.99940
2901 OM 2901 OM OM1 2901 -0.550000 15.99940
2902 OM 2902 OM OM1 2902 -0.550000 15.99940
2903 OM 2903 OM OM1 2903 -0.550000 15.99940
2904 OM 2904 OM OM1 2904 -0.550000 15.99940
2905 OM 2905 OM OM1 2905 -0.550000 15.99940
2906 OM 2906 OM OM1 2906 -0.550000 15.99940
2907 OM 2907 OM OM1 2907 -0.550000 15.99940
2908 OM 2908 OM OM1 2908 -0.550000 15.99940
2909 OM 2909 OM OM1 2909 -0.550000 15.99940
2910 OM 2910 OM OM1 2910 -0.550000 15.99940
2911 OM 2911 OM OM1 2911 -0.550000 15.99940
2912 OM 2912 OM OM1 2912 -0.550000 15.99940
2913 OM 2913 OM OM1 2913 -0.550000 15.99940
2914 OM 2914 OM OM1 2914 -0.550000 15.99940
2915 OM 2915 OM OM1 2915 -0.550000 15.99940
2916 OM 2916 OM OM1 2916 -0.550000 15.99940
2917 OM 2917 OM OM1 2917 -0.550000 15.99940
2918 OM 2918 OM OM1 2918 -0.550000 15.99940
2919 OM 2919 OM OM1 2919 -0.550000 15.99940
2920 OM 2920 OM OM1 2920 -0.550000 15.99940
2921 OM 2921 OM OM1 2921 -0.550000 15.99940
2922 OM 2922 OM OM1 2922 -0.550000 15.99940
2923 OM 2923 OM OM1 2923 -0.550000 15.99940
2924 OM 2924 OM OM1 2924 -0.550000 15.99940
2925 OM 2925 OM OM1 2925 -0.550000 15.99940
2926 OM 2926 OM OM1 2926 -0.550000 15.99940
2927 OM 2927 OM OM1 2927 -0.550000 15.99940
2928 OM 2928 OM OM1 2928 -0.550000 15.99940
2929 OM 2929 OM OM1 2929 -0.550000 15.99940
2930 OM 2930 OM OM1 2930 -0.550000 15.99940
2931 OM 2931 OM OM1 2931 -0.550000 15.99940
2932 OM 2932 OM OM1 2932 -0.550000 15.99940
2933 OM 2933 OM OM1 2933 -0.550000 15.99940
2934 OM 2934 OM OM1 2934 -0.550000 15.99940
2935 OM 2935 OM OM1 2935 -0.550000 15.99940
2936 OM 2936 OM OM1 2936 -0.550000 15.99940
2937 OM 2937 OM OM1 2937 -0.550000 15.99940
2938 OM 2938 OM OM1 2938 -0.550000 15.99940
2939 OM 2939 OM OM1 2939 -0.550000 15.99940
2940 OM 2940 OM OM1 2940 -0.550000 15.99940
2941 OM 2941 OM OM1 2941 -0.550000 15.99940
2942 OM 2942 OM OM1 2942 -0.550000 15.99940
2943 OM 2943 OM OM1 2943 -0.550000 15.99940
2944 OM 2944 OM OM1 2944 -0.550000 15.99940
2945 OM 2945 OM OM1 2945 -0.550000 15.99940
2946 OM 2946 OM OM1 2946 -0.550000 15.99940
2947 OM 2947 OM OM1 2947 -0.550000 15.99940
2948 OM 2948 OM OM1 2948 -0.550000 15.99940
2949 OM 2949 OM OM1 2949 -0.550000 15.99940
2950 OM 2950 OM OM1 2950 -0.550000 15.99940
2951 OM 2951 OM OM1 2951 -0.550000 15.99940
2952 OM 2952 OM OM1 2952 -0.550000 15.99940
2953 OM 2953 OM OM1 2953 -0.550000 15.99940
2954 OM 2954 OM OM1 2954 -0.550000 15.99940
2955 OM 2955 OM OM1 2955 -0.550000 15.99940
2956 OM 2956 OM OM1 2956 -0.550000 15.99940
2957 OM 2957 OM OM1 2957 -0.550000 15.99940
2958 OM 2958 OM OM1 2958 -0.550000 15.99940
2959 OM 2959 OM OM1 2959 -0.550000 15.99940
2960 OM 2960 OM OM1 2960 -0.550000 15.99940
2961 OM 2961 OM OM1 2961 -0.550000 15.99940
2962 OM 2962 OM OM1 2962 -0.550000 15.99940
2963 OM 2963 OM OM1 2963 -0.550000 15.99940
2964 OM 2964 OM OM1 2964 -0.550000 15.99940
2965 OM 2965 OM OM1 2965 -0.550000 15.99940
2966 OM 2966 OM OM1 2966 -0.550000 15.99940
2967 OM 2967 OM OM1 2967 -0.550000 15.99940
2968 OM 2968 OM OM1 2968 -0.550000 15.99940
2969 OM 2969 OM OM1 2969 -0.550000 15.99940
2970 OM 2970 OM OM1 2970 -0.550000 15.99940
2971 OM 2971 OM OM1 2971 -0.550000 15.99940
2972 OM 2972 OM OM1 2972 -0.550000 15.99940
2973 OM 2973 OM OM1 2973 -0.550000 15.99940
2974 OM 2974 OM OM1 2974 -0.550000 15.99940
2975 OM 2975 OM OM1 2975 -0.550000 15.99940
2976 OM 2976 OM OM1 2976 -0.550000 15.99940
2977 OM 2977 OM OM1 2977 -0.550000 15.99940
2978 OM 2978 OM OM1 2978 -0.550000 15.99940
2979 OM 2979 OM OM1 2979 -0.550000 15.99940
2980 OM 2980 OM OM1 2980 -0.550000 15.99940
2981 OM 2981 OM OM1 2981 -0.550000 15.99940
2982 OM 2982 OM OM1 2982 -0.550000 15.99940
2983 OM 2983 OM OM1 2983 -0.550000 15.99940
2984 OM 2984 OM OM1 2984 -0.550000 15.99940
2985 OM 2985 OM OM1 2985 -0.550000 15.99940
2986 OM 2986 OM OM1 2986 -0.550000 15.99940
2987 OM 2987 OM OM1 2987 -0.550000 15.99940
2988 OM 2988 OM OM1 2988 -0.550000 15.99940
2989 OM 2989 OM OM1 2989 -0.550000 15.99940
2990 OM 2990 OM OM1 2990 -0.550000 15.99940
2991 OM 2991 OM OM1 2991 -0.550000 15.99940
2992 OM 2992 OM OM1 2992 -0.550000 15.99940
2993 OM 2993 OM OM1 2993 -0.550000 15.99940
2994 OM 2994 OM OM1 2994 -0.550000 15.99940
2995 OM 2995 OM OM1 2995 -0.550000 15.99940
2996 OM 2996 OM OM1 2996 -0.550000 15.99940
2997 OM 2997 OM OM1 2997 -0.550000 15.99940
2998 OM 2998 OM OM1 2998 -0.550000 15.99940
2999 OM 2999 OM OM1 2999 -0.550000 15.99940
3000 OM 3000 OM OM1 3000 -0.550000 15.99940
3001 OM 3001 OM OM1 3001 -0.550000 15.99940
3002 OM 3002 OM OM1 3002 -0.550000 15.99940
3003 OM 3003 OM OM1 3003 -0.550000 15.99940
3004 OM 3004 OM OM1 3004 -0.550000 15.99940
3005 OM 3005 OM OM1 3005 -0.550000 15.99940
3006 OM 3006 OM OM1 3006 -0.550000 15.99940
3007 OM 3007 OM OM1 3007 -0.550000 15.99940
3008 OM 3008 OM OM1 3008 -0.550000 15.99940
3009 OM 3009 OM OM1 3009 -0.550000 15.99940
3010 OM 3010 OM OM1 3010 -0.550000 15.99940
3011 OM 3011 OM OM1 3011 -0.550000 15.99940
3012 OM 3012 OM OM1 3012 -0.550000 15.99940
3013 OM 3013 OM OM1 3013 -0.550000 15.99940
3014 OM 3014 OM OM1 3014 -0.550000 15.99940
3015 OM 3015 OM OM1 3015 -0.550000 15.99940
3016 OM 3016 OM OM1 3016 -0.550000 15.99940
3017 OM 3017 OM OM1 3017 -0.550000 15.99940
3018 OM 3018 OM OM1 3018 -0.550000 15.99940
3019 OM 3019 OM OM1 3019 -0.550000 15.99940
3020 OM 3020 OM OM1 3020 -0.550000 15.99940
3021 OM 3021 OM OM1 3021 -0.550000 15.99940
3022 OM 3022 OM OM1 3022 -0.550000 15.99940
3023 OM 3023 OM OM1 3023 -0.550000 15.99940
3024 OM 3024 OM OM1 3024 -0.550000 15.99940
3025 OM 3025 OM OM1 3025 -0.550000 15.99940
3026 OM 3026 OM OM1 3026 -0.550000 15.99940
3027 OM 3027 OM OM1 3027 -0.550000 15.99940
3028 OM 3028 OM OM1 3028 -0.550000 15.99940
3029 OM 3029 OM OM1 3029 -0.550000 15.99940
3030 OM 3030 OM OM1 3030 -0.550000 15.99940
3031 OM 3031 OM OM1 3031 -0.550000 15.99940
3032 OM 3032 OM OM1 3032 -0.550000 15.99940
3033 OM 3033 OM OM1 3033 -0.550000 15.99940
3034 OM 3034 OM OM1 3034 -0.550000 15.99940
3035 OM 3035 OM OM1 3035 -0.550000 15.99940
3036 OM 3036 OM OM1 3036 -0.550000 15.99940
3037 OM 3037 OM OM1 3037 -0.550000 15.99940
3038 OM 3038 OM OM1 3038 -0.550000 15.99940
3039 OM 3039 OM OM1 3039 -0.550000 15.99940
3040 OM 3040 OM OM1 3040 -0.550000 15.99940
3041 OM 3041 OM OM1 3041 -0.550000 15.99940
3042 OM 3042 OM OM1 3042 -0.550000 15.99940
3043 OM 3043 OM OM1 3043 -0.550000 15.99940
3044 OM 3044 OM OM1 3044 -0.550000 15.99940
3045 OM 3045 OM OM1 3045 -0.550000 15.99940
3046 OM 3046 OM OM1 3046 -0.550000 15.99940
3047 OM 3047 OM OM1 3047 -0.550000 15.99940
3048 OM 3048 OM OM1 3048 -0.550000 15.99940
3049 OM 3049 OM OM1 3049 -0.550000 15.99940
3050 OM 3050 OM OM1 3050 -0.550000 15.99940
3051 OM 3051 OM OM1 3051 -0.550000 15.99940
3052 OM 3052 OM OM1 3052 -0.550000 15.99940
3053 OM 3053 OM OM1 3053 -0.550000 15.99940
3054 OM 3054 OM OM1 3054 -0.550000 15.99940
3055 OM 3055 OM OM1 3055 -0.550000 15.99940
3056 OM 3056 OM OM1 3056 -0.550000 15.99940
3057 OM 3057 OM OM1 3057 -0.550000 15.99940
3058 OM 3058 OM OM1 3058 -0.550000 15.99940
3059 OM 3059 OM OM1 3059 -0.550000 15.99940
3060 OM 3060 OM OM1 3060 -0.550000 15.99940
3061 OM 3061 OM OM1 3061 -0.550000 15.99940
3062 OM 3062 OM OM1 3062 -0.550000 15.99940
3063 OM 3063 OM OM1 3063 -0.550000 15.99940
3064 OM 3064 OM OM1 3064 -0.550000 15.99940
3065 OM 3065 OM OM1 3065 -0.550000 15.99940
3066 OM 3066 OM OM1 3066 -0.550000 15.99940
3067 OM 3067 OM OM1 3067 -0.550000 15.99940
3068 OM 3068 OM OM1 3068 -0.550000 15.99940
3069 OM 3069 OM OM1 3069 -0.550000 15.99940
3070 OM 3070 OM OM1 3070 -0.550000 15.99940
3071 OM 3071 OM OM1 3071 -0.550000 15.99940
3072 OM 3072 OM OM1 3072 -0.550000 15.99940
3073 OM 3073 OM OM1 3073 -0.550000 15.99940
3074 OM 3074 OM OM1 3074 -0.550000 15.99940
3075 OM 3075 OM OM1 3075 -0.550000 15.99940
3076 OM 3076 OM OM1 3076 -0.550000 15.99940
3077 OM 3077 OM OM1 3077 -0.550000 15.99940
3078 OM 3078 OM OM1 3078 -0.550000 15.99940
3079 OM 3079 OM OM1 3079 -0.550000 15.99940
3080 OM 3080 OM OM1 3080 -0.550000 15.99940
3081 OM 3081 OM OM1 3081 -0.550000 15.99940
3082 OM 3082 OM OM1 3082 -0.550000 15.99940
3083 OM 3083 OM OM1 3083 -0.550000 15.99940
3084 OM 3084 OM OM1 3084 -0.550000 15.99940
3085 OM 3085 OM OM1 3085 -0.550000 15.99940
3086 OM 3086 OM OM1 3086 -0.550000 15.99940
3087 OM 3087 OM OM1 3087 -0.550000 15.99940
3088 OM 3088 OM OM1 3088 -0.550000 15.99940
3089 OM 3089 OM OM1 3089 -0.550000 15.99940
3090 OM 3090 OM OM1 3090 -0.550000 15.99940
3091 OM 3091 OM OM1 3091 -0.550000 15.99940
3092 OM 3092 OM OM1 3092 -0.550000 15.99940
3093 OM 3093 OM OM1 3093 -0.550000 15.99940
3094 OM 3094 OM OM1 3094 -0.550000 15.99940
3095 OM 3095 OM OM1 3095 -0.550000 15.99940
3096 OM 3096 OM OM1 3096 -0.550000 15.99940
3097 OM 3097 OM OM1 3097 -0.550000 15.99940
3098 OM 3098 OM OM1 3098 -0.550000 15.99940
3099 OM 3099 OM OM1 3099 -0.550000 15.99940
3100 OM 3100 OM OM1 3100 -0.550000 15.99940
3101 OM 3101 OM OM1 3101 -0.550000 15.99940
3102 OM 3102 OM OM1 3102 -0.550000 15.99940
3103 OM 3103 OM OM1 3103 -0.550000 15.99940
3104 OM 3104 OM OM1 3104 -0.550000 15.99940
3105 OM 3105 OM OM1 3105 -0.550000 15.99940
3106 OM 3106 OM OM1 3106 -0.550000 15.99940
3107 OM 3107 OM OM1 3107 -0.550000 15.99940
3108 OM 3108 OM OM1 3108 -0.550000 15.99940
3109 OM 3109 OM OM1 3109 -0.550000 15.99940
3110 OM 3110 OM OM1 3110 -0.550000 15.99940
3111 OM 3111 OM OM1 3111 -0.550000 15.99940
3112 OM 3112 OM OM1 3112 -0.550000 15.99940
3113 OM 3113 OM OM1 3113 -0.550000 15.99940
3114 OM 3114 OM OM1 3114 -0.550000 15.99940
3115 OM 3115 OM OM1 3115 -0.550000 15.99940
3116 OM 3116 OM OM1 3116 -0.550000 15.99940
3117 OM 3117 OM OM1 3117 -0.550000 15.99940
3118 OM 3118 OM OM1 3118 -0.550000 15.99940
3119 OM 3119 OM OM1 3119 -0.550000 15.99940
3120 OM 3120 OM OM1 3120 -0.550000 15.99940
3121 OM 3121 OM OM1 3121 -0.550000 15.99940
3122 OM 3122 OM OM1 3122 -0.550000 15.99940
3123 OM 3123 OM OM1 3123 -0.550000 15.99940
3124 OM 3124 OM OM1 3124 -0.550000 15.99940
3125 OM 3125 OM OM1 3125 -0.550000 15.99940
3126 OM 3126 OM OM1 3126 -0.550000 15.99940
3127 OM 3127 OM OM1 3127 -0.550000 15.99940
3128 OM 3128 OM OM1 3128 -0.550000 15.99940
3129 OM 3129 OM OM1 3129 -0.550000 15.99940
3130 OM 3130 OM OM1 3130 -0.550000 15.99940
3131 OM 3131 OM OM1 3131 -0.550000 15.99940
3132 OM 3132 OM OM1 3132 -0.550000 15.99940
3133 OM 3133 OM OM1 3133 -0.550000 15.99940
3134 OM 3134 OM OM1 3134 -0.550000 15.99940
3135 OM 3135 OM OM1 3135 -0.550000 15.99940
3136 OM 3136 OM OM1 3136 -0.550000 15.99940
3137 OM 3137 OM OM1 3137 -0.550000 15.99940
3138 OM 3138 OM OM1 3138 -0.550000 15.99940
3139 OM 3139 OM OM1 3139 -0.550000 15.99940
3140 OM 3140 OM OM1 3140 -0.550000 15.99940
3141 OM 3141 OM OM1 3141 -0.550000 15.99940
3142 OM 3142 OM OM1 3142 -0.550000 15.99940
3143 OM 3143 OM OM1 3143 -0.550000 15.99940
3144 OM 3144 OM OM1 3144 -0.550000 15.99940
3145 OM 3145 OM OM1 3145 -0.550000 15.99940
3146 OM 3146 OM OM1 3146 -0.550000 15.99940
3147 OM 3147 OM OM1 3147 -0.550000 15.99940
3148 OM 3148 OM OM1 3148 -0.550000 15.99940
3149 OM 3149 OM OM1 3149 -0.550000 15.99940
3150 OM 3150 OM OM1 3150 -0.550000 15.99940
3151 OM 3151 OM OM1 3151 -0.550000 15.99940
3152 OM 3152 OM OM1 3152 -0.550000 15.99940
3153 OM 3153 OM OM1 3153 -0.550000 15.99940
3154 OM 3154 OM OM1 3154 -0.550000 15.99940
3155 OM 3155 OM OM1 3155 -0.550000 15.99940
3156 OM 3156 OM OM1 3156 -0.550000 15.99940
3157 OM 3157 OM OM1 3157 -0.550000 15.99940
3158 OM 3158 OM OM1 3158 -0.550000 15.99940
3159 OM 3159 OM OM1 3159 -0.550000 15.99940
3160 OM 3160 OM OM1 3160 -0.550000 15.99940
3161 OM 3161 OM OM1 3161 -0.550000 15.99940
3162 OM 3162 OM OM1 3162 -0.550000 15.99940
3163 OM 3163 OM OM1 3163 -0.550000 15.99940
3164 OM 3164 OM OM1 3164 -0.550000 15.99940
3165 OM 3165 OM OM1 3165 -0.550000 15.99940
3166 OM 3166 OM OM1 3166 -0.550000 15.99940
3167 OM 3167 OM OM1 3167 -0.550000 15.99940
3168 OM 3168 OM OM1 3168 -0.550000 15.99940
3169 OM 3169 OM OM1 3169 -0.550000 15.99940
3170 OM 3170 OM OM1 3170 -0.550000 15.99940
3171 OM 3171 OM OM1 3171 -0.550000 15.99940
3172 OM 3172 OM OM1 3172 -0.550000 15.99940
3173 OM 3173 OM OM1 3173 -0.550000 15.99940
3174 OM 3174 OM OM1 3174 -0.550000 15.99940
3175 OM 3175 OM OM1 3175 -0.550000 15.99940
3176 OM 3176 OM OM1 3176 -0.550000 15.99940
3177 OM 3177 OM OM1 3177 -0.550000 15.99940
3178 OM 3178 OM OM1 3178 -0.550000 15.99940
3179 OM 3179 OM OM1 3179 -0.550000 15.99940
3180 OM 3180 OM OM1 3180 -0.550000 15.99940
3181 OM 3181 OM OM1 3181 -0.550000 15.99940
3182 OM 3182 OM OM1 3182 -0.550000 15.99940
3183 OM 3183 OM OM1 3183 -0.550000 15.99940
3184 OM 3184 OM OM1 3184 -0.550000 15.99940
3185 OM 3185 OM OM1 3185 -0.550000 15.99940
3186 OM 3186 OM OM1 3186 -0.550000 15.99940
3187 OM 3187 OM OM1 3187 -0.550000 15.99940
3188 OM 3188 OM OM1 3188 -0.550000 15.99940
3189 OM 3189 OM OM1 3189 -0.550000 15.99940
3190 OM 3190 OM OM1 3190 -0.550000 15.99940
3191 OM 3191 OM OM1 3191 -0.550000 15.99940
3192 OM 3192 OM OM1 3192 -0.550000 15.99940
3193 OM 3193 OM OM1 3193 -0.550000 15.99940
3194 OM 3194 OM OM1 3194 -0.550000 15.99940
3195 OM 3195 OM OM1 3195 -0.550000 15.99940
3196 OM 3196 OM OM1 3196 -0.550000 15.99940
3197 OM 3197 OM OM1 3197 -0.550000 15.99940
3198 OM 3198 OM OM1 3198 -0.550000 15.99940
3199 OM 3199 OM OM1 3199 -0.550000 15.99940
3200 OM 3200 OM OM1 3200 -0.550000 15.99940
3201 OM 3201 OM OM1 3201 -0.550000 15.99940
3202 OM 3202 OM OM1 3202 -0.550000 15.99940
3203 OM 3203 OM OM1 3203 -0.550000 15.99940
3204 OM 3204 OM OM1 3204 -0.550000 15.99940
3205 OM 3205 OM OM1 3205 -0.550000 15.99940
3206 OM 3206 OM OM1 3206 -0.550000 15.99940
3207 OM 3207 OM OM1 3207 -0.550000 15.99940
3208 OM 3208 OM OM1 3208 -0.550000 15.99940
3209 OM 3209 OM OM1 3209 -0.550000 15.99940
3210 OM 3210 OM OM1 3210 -0.550000 15.99940
3211 OM 3211 OM OM1 3211 -0.550000 15.99940
3212 OM 3212 OM OM1 3212 -0.550000 15.99940
3213 OM 3213 OM OM1 3213 -0.550000 15.99940
3214 OM 3214 OM OM1 3214 -0.550000 15.99940
3215 OM 3215 OM OM1 3215 -0.550000 15.99940
3216 OM 3216 OM OM1 3216 -0.550000 15.99940
3217 OM 3217 OM OM1 3217 -0.550000 15.99940
3218 OM 3218 OM OM1 3218 -0.550000 15.99940
3219 OM 3219 OM OM1 3219 -0.550000 15.99940
3220 OM 3220 OM OM1 3220 -0.550000 15.99940
3221 OM 3221 OM OM1 3221 -0.550000 15.99940
3222 OM 3222 OM OM1 3222 -0.550000 15.99940
3223 OM 3223 OM OM1 3223 -0.550000 15.99940
3224 OM 3224 OM OM1 3224 -0.550000 15.99940
3225 OM 3225 OM OM1 3225 -0.550000 15.99940
3226 OM 3226 OM OM1 3226 -0.550000 15.99940
3227 OM 3227 OM OM1 3227 -0.550000 15.99940
3228 OM 3228 OM OM1 3228 -0.550000 15.99940
3229 OM 3229 OM OM1 3229 -0.550000 15.99940
3230 OM 3230 OM OM1 3230 -0.550000 15.99940
3231 OM 3231 OM OM1 3231 -0.550000 15.99940
3232 OM 3232 OM OM1 3232 -0.550000 15.99940
3233 OM 3233 OM OM1 3233 -0.550000 15.99940
3234 OM 3234 OM OM1 3234 -0.550000 15.99940
3235 OM 3235 OM OM1 3235 -0.550000 15.99940
3236 OM 3236 OM OM1 3236 -0.550000 15.99940
3237 OM 3237 OM OM1 3237 -0.550000 15.99940
3238 OM 3238 OM OM1 3238 -0.550000 15.99940
3239 OM 3239 OM OM1 3239 -0.550000 15.99940
3240 OM 3240 OM OM1 3240 -0.550000 15.99940
3241 OM 3241 OM OM1 3241 -0.550000 15.99940
3242 OM 3242 OM OM1 3242 -0.550000 15.99940
3243 OM 3243 OM OM1 3243 -0.550000 15.99940
3244 OM 3244 OM OM1 3244 -0.550000 15.99940
3245 OM 3245 OM OM1 3245 -0.550000 15.99940
3246 OM 3246 OM OM1 3246 -0.550000 15.99940
3247 OM 3247 OM OM1 3247 -0.550000 15.99940
3248 OM 3248 OM OM1 3248 -0.550000 15.99940
3249 OM 3249 OM OM1 3249 -0.550000 15.99940
3250 OM 3250 OM OM1 3250 -0.550000 15.99940
3251 OM 3251 OM OM1 3251 -0.550000 15.99940
3252 OM 3252 OM OM1 3252 -0.550000 15.99940
3253 OM 3253 OM OM1 3253 -0.550000 15.99940
3254 OM 3254 OM OM1 3254 -0.550000 15.99940
3255 OM 3255 OM OM1 3255 -0.550000 15.99940
3256 OM 3256 OM OM1 3256 -0.550000 15.99940
3257 OM 3257 OM OM1 3257 -0.550000 15.99940
3258 OM 3258 OM OM1 3258 -0.550000 15.99940
3259 OM 3259 OM OM1 3259 -0.550000 15.99940
3260 OM 3260 OM OM1 3260 -0.550000 15.99940
3261 OM 3261 OM OM1 3261 -0.550000 15.99940
3262 OM 3262 OM OM1 3262 -0.550000 15.99940
3263 OM 3263 OM OM1 3263 -0.550000 15.99940
3264 OM 3264 OM OM1 3264 -0.550000 15.99940
3265 OM 3265 OM OM1 3265 -0.550000 15.99940
3266 OM 3266 OM OM1 3266 -0.550000 15.99940
3267 OM 3267 OM OM1 3267 -0.550000 15.99940
3268 OM 3268 OM OM1 3268 -0.550000 15.99940
3269 OM 3269 OM OM1 3269 -0.550000 15.99940
3270 OM 3270 OM OM1 3270 -0.550000 15.99940
3271 OM 3271 OM OM1 3271 -0.550000 15.99940
3272 OM 3272 OM OM1 3272 -0.550000 15.99940
3273 OM 3273 OM OM1 3273 -0.550000 15.99940
3274 OM 3274 OM OM1 3274 -0.550000 15.99940
3275 OM 3275 OM OM1 3275 -0.550000 15.99940
3276 OM 3276 OM OM1 3276 -0.550000 15.99940
3277 OM 3277 OM OM1 3277 -0.550000 15.99940
3278 OM 3278 OM OM1 3278 -0.550000 15.99940
3279 OM 3279 OM OM1 3279 -0.550000 15.99940
3280 OM 3280 OM OM1 3280 -0.550000 15.99940
3281 OM 3281 OM OM1 3281 -0.550000 15.99940
3282 OM 3282 OM OM1 3282 -0.550000 15.99940
3283 OM 3283 OM OM1 3283 -0.550000 15.99940
3284 OM 3284 OM OM1 3284 -0.550000 15.99940
3285 OM 3285 OM OM1 3285 -0.550000 15.99940
3286 OM 3286 OM OM1 3286 -0.550000 15.99940
3287 OM 3287 OM OM1 3287 -0.550000 15.99940
3288 OM 3288 OM OM1 3288 -0.550000 15.99940
3289 OM 3289 OM OM1 3289 -0.550000 15.99940
3290 OM 3290 OM OM1 3290 -0.550000 15.99940
3291 OM 3291 OM OM1 3291 -0.550000 15.99940
3292 OM 3292 OM OM1 3292 -0.550000 15.99940
3293 OM 3293 OM OM1 3293 -0.550000 15.99940
3294 OM 3294 OM OM1 3294 -0.550000 15.99940
3295 OM 3295 OM OM1 3295 -0.550000 15.99940
3296 OM 3296 OM OM1 3296 -0.550000 15.99940
3297 OM 3297 OM OM1 3297 -0.550000 15.99940
3298 OM 3298 OM OM1 3298 -0.550000 15.99940
3299 OM 3299 OM OM1 3299 -0.550000 15.99940
3300 OM 3300 OM OM1 3300 -0.550000 15.99940
3301 OM 3301 OM OM1 3301 -0.550000 15.99940
3302 OM 3302 OM OM1 3302 -0.550000 15.99940
3303 OM 3303 OM OM1 3303 -0.550000 15.99940
3304 OM 3304 OM OM1 3304 -0.550000 15.99940
3305 OM 3305 OM OM1 3305 -0.550000 15.99940
3306 OM 3306 OM OM1 3306 -0.550000 15.99940
3307 OM 3307 OM OM1 3307 -0.550000 15.99940
3308 OM 3308 OM OM1 3308 -0.550000 15.99940
3309 OM 3309 OM OM1 3309 -0.550000 15.99940
3310 OM 3310 OM OM1 3310 -0.550000 15.99940
3311 OM 3311 OM OM1 3311 -0.550000 15.99940
3312 OM 3312 OM OM1 3312 -0.550000 15.99940
3313 OM 3313 OM OM1 3313 -0.550000 15.99940
3314 OM 3314 OM OM1 3314 -0.550000 15.99940
3315 OM 3315 OM OM1 3315 -0.550000 15.99940
3316 OM 3316 OM OM1 3316 -0.550000 15.99940
3317 OM 3317 OM OM1 3317 -0.550000 15.99940
3318 OM 3318 OM OM1 3318 -0.550000 15.99940
3319 OM 3319 OM OM1 3319 -0.550000 15.99940
3320 OM 3320 OM OM1 3320 -0.550000 15.99940
3321 OM 3321 OM OM1 3321 -0.550000 15.99940
3322 OM 3322 OM OM1 3322 -0.550000 15.99940
3323 OM 3323 OM OM1 3323 -0.550000 15.99940
3324 OM 3324 OM OM1 3324 -0.550000 15.99940
3325 OM 3325 OM OM1 3325 -0.550000 15.99940
3326 OM 3326 OM OM1 3326 -0.550000 15.99940
3327 OM 3327 OM OM1 3327 -0.550000 15.99940
3328 OM 3328 OM OM1 3328 -0.550000 15.99940
3329 OM 3329 OM OM1 3329 -0.550000 15.99940
3330 OM 3330 OM OM1 3330 -0.550000 15.99940
3331 OM 3331 OM OM1 3331 -0.550000 15.99940
3332 OM 3332 OM OM1 3332 -0.550000 15.99940
3333 OM 3333 OM OM1 3333 -0.550000 15.99940
3334 OM 3334 OM OM1 3334 -0.550000 15.99940
3335 OM 3335 OM OM1 3335 -0.550000 15.99940
3336 OM 3336 OM OM1 3336 -0.550000 15.99940
3337 OM 3337 OM OM1 3337 -0.550000 15.99940
3338 OM 3338 OM OM1 3338 -0.550000 15.99940
3339 OM 3339 OM OM1 3339 -0.550000 15.99940
3340 OM 3340 OM OM1 3340 -0.550000 15.99940
3341 OM 3341 OM OM1 3341 -0.550000 15.99940
3342 OM 3342 OM OM1 3342 -0.550000 15.99940
3343 OM 3343 OM OM1 3343 -0.550000 15.99940
3344 OM 3344 OM OM1 3344 -0.550000 15.99940
3345 OM 3345 OM OM1 3345 -0.550000 15.99940
3346 OM 3346 OM OM1 3346 -0.550000 15.99940
3347 OM 3347 OM OM1 3347 -0.550000 15.99940
3348 OM 3348 OM OM1 3348 -0.550000 15.99940
3349 OM 3349 OM OM1 3349 -0.550000 15.99940
3350 OM 3350 OM OM1 3350 -0.550000 15.99940
3351 OM 3351 OM OM1 3351 -0.550000 15.99940
3352 OM 3352 OM OM1 3352 -0.550000 15.99940
3353 OM 3353 OM OM1 3353 -0.550000 15.99940
3354 OM 3354 OM OM1 3354 -0.550000 15.99940
3355 OM 3355 OM OM1 3355 -0.550000 15.99940
3356 OM 3356 OM OM1 3356 -0.550000 15.99940
3357 OM 3357 OM OM1 3357 -0.550000 15.99940
3358 OM 3358 OM OM1 3358 -0.550000 15.99940
3359 OM 3359 OM OM1 3359 -0.550000 15.99940
3360 OM 3360 OM OM1 3360 -0.550000 15.99940
3361 OM 3361 OM OM1 3361 -0.550000 15.99940
3362 OM 3362 OM OM1 3362 -0.550000 15.99940
3363 OM 3363 OM OM1 3363 -0.550000 15.99940
3364 OM 3364 OM OM1 3364 -0.550000 15.99940
3365 OM 3365 OM OM1 3365 -0.550000 15.99940
3366 OM 3366 OM OM1 3366 -0.550000 15.99940
3367 OM 3367 OM OM1 3367 -0.550000 15.99940
3368 OM 3368 OM OM1 3368 -0.550000 15.99940
3369 OM 3369 OM OM1 3369 -0.550000 15.99940
3370 OM 3370 OM OM1 3370 -0.550000 15.99940
3371 OM 3371 OM OM1 3371 -0.550000 15.99940
3372 OM 3372 OM OM1 3372 -0.550000 15.99940
3373 OM 3373 OM OM1 3373 -0.550000 15.99940
3374 OM 3374 OM OM1 3374 -0.550000 15.99940
3375 OM 3375 OM OM1 3375 -0.550000 15.99940
3376 OM 3376 OM OM1 3376 -0.550000 15.99940
3377 OM 3377 OM OM1 3377 -0.550000 15.99940
3378 OM 3378 OM OM1 3378 -0.550000 15.99940
3379 OM 3379 OM OM1 3379 -0.550000 15.99940
3380 OM 3380 OM OM1 3380 -0.550000 15.99940
3381 OM 3381 OM OM1 3381 -0.550000 15.99940
3382 OM 3382 OM OM1 3382 -0.550000 15.99940
3383 OM 3383 OM OM1 3383 -0.550000 15.99940
3384 OM 3384 OM OM1 3384 -0.550000 15.99940
3385 OM 3385 OM OM1 3385 -0.550000 15.99940
3386 OM 3386 OM OM1 3386 -0.550000 15.99940
3387 OM 3387 OM OM1 3387 -0.550000 15.99940
3388 OM 3388 OM OM1 3388 -0.550000 15.99940
3389 OM 3389 OM OM1 3389 -0.550000 15.99940
3390 OM 3390 OM OM1 3390 -0.550000 15.99940
3391 OM 3391 OM OM1 3391 -0.550000 15.99940
3392 OM 3392 OM OM1 3392 -0.550000 15.99940
3393 OM 3393 OM OM1 3393 -0.550000 15.99940
3394 OM 3394 OM OM1 3394 -0.550000 15.99940
3395 OM 3395 OM OM1 3395 -0.550000 15.99940
3396 OM 3396 OM OM1 3396 -0.550000 15.99940
3397 OM 3397 OM OM1 3397 -0.550000 15.99940
3398 OM 3398 OM OM1 3398 -0.550000 15.99940
3399 OM 3399 OM OM1 3399 -0.550000 15.99940
3400 OM 3400 OM OM1 3400 -0.550000 15.99940
3401 OM 3401 OM OM1 3401 -0.550000 15.99940
3402 OM 3402 OM OM1 3402 -0.550000 15.99940
3403 OM 3403 OM OM1 3403 -0.550000 15.99940
3404 OM 3404 OM OM1 3404 -0.550000 15.99940
3405 OM 3405 OM OM1 3405 -0.550000 15.99940
3406 OM 3406 OM OM1 3406 -0.550000 15.99940
3407 OM 3407 OM OM1 3407 -0.550000 15.99940
3408 OM 3408 OM OM1 3408 -0.550000 15.99940
3409 OM 3409 OM OM1 3409 -0.550000 15.99940
3410 OM 3410 OM OM1 3410 -0.550000 15.99940
3411 OM 3411 OM OM1 3411 -0.550000 15.99940
3412 OM 3412 OM OM1 3412 -0.550000 15.99940
3413 OM 3413 OM OM1 3413 -0.550000 15.99940
3414 OM 3414 OM OM1 3414 -0.550000 15.99940
3415 OM 3415 OM OM1 3415 -0.550000 15.99940
3416 OM 3416 OM OM1 3416 -0.550000 15.99940
3417 OM 3417 OM OM1 3417 -0.550000 15.99940
3418 OM 3418 OM OM1 3418 -0.550000 15.99940
3419 OM 3419 OM OM1 3419 -0.550000 15.99940
3420 OM 3420 OM OM1 3420 -0.550000 15.99940
3421 OM 3421 OM OM1 3421 -0.550000 15.99940
3422 OM 3422 OM OM1 3422 -0.550000 15.99940
3423 OM 3423 OM OM1 3423 -0.550000 15.99940
3424 OM 3424 OM OM1 3424 -0.550000 15.99940
3425 OM 3425 OM OM1 3425 -0.550000 15.99940
3426 OM 3426 OM OM1 3426 -0.550000 15.99940
3427 OM 3427 OM OM1 3427 -0.550000 15.99940
3428 OM 3428 OM OM1 3428 -0.550000 15.99940
3429 OM 3429 OM OM1 3429 -0.550000 15.99940
3430 OM 3430 OM OM1 3430 -0.550000 15.99940
3431 OM 3431 OM OM1 3431 -0.550000 15.99940
3432 OM 3432 OM OM1 3432 -0.550000 15.99940
3433 OM 3433 OM OM1 3433 -0.550000 15.99940
3434 OM 3434 OM OM1 3434 -0.550000 15.99940
3435 OM 3435 OM OM1 3435 -0.550000 15.99940
3436 OM 3436 OM OM1 3436 -0.550000 15.99940
3437 OM 3437 OM OM1 3437 -0.550000 15.99940
3438 OM 3438 OM OM1 3438 -0.550000 15.99940
3439 OM 3439 OM OM1 3439 -0.550000 15.99940
3440 OM 3440 OM OM1 3440 -0.550000 15.99940
3441 OM 3441 OM OM1 3441 -0.550000 15.99940
3442 OM 3442 OM OM1 3442 -0.550000 15.99940
3443 OM 3443 OM OM1 3443 -0.550000 15.99940
3444 OM 3444 OM OM1 3444 -0.550000 15.99940
3445 OM 3445 OM OM1 3445 -0.550000 15.99940
3446 OM 3446 OM OM1 3446 -0.550000 15.99940
3447 OM 3447 OM OM1 3447 -0.550000 15.99940
3448 OM 3448 OM OM1 3448 -0.550000 15.99940
3449 OM 3449 OM OM1 3449 -0.550000 15.99940
3450 OM 3450 OM OM1 3450 -0.550000 15.99940
3451 OM 3451 OM OM1 3451 -0.550000 15.99940
3452 OM 3452 OM OM1 3452 -0.550000 15.99940
3453 OM 3453 OM OM1 3453 -0.550000 15.99940
3454 OM 3454 OM OM1 3454 -0.550000 15.99940
3455 OM 3455 OM OM1 3455 -0.550000 15.99940
3456 OM 3456 OM OM1 3456 -0.550000 15.99940
3457 OM 3457 OM OM1 3457 -0.550000 15.99940
3458 OM 3458 OM OM1 3458 -0.550000 15.99940
3459 OM 3459 OM OM1 3459 -0.550000 15.99940
3460 OM 3460 OM OM1 3460 -0.550000 15.99940
3461 OM 3461 OM OM1 3461 -0.550000 15.99940
3462 OM 3462 OM OM1 3462 -0.550000 15.99940
3463 OM 3463 OM OM1 3463 -0.550000 15.99940
3464 OM 3464 OM OM1 3464 -0.550000 15.99940
3465 OM 3465 OM OM1 3465 -0.550000 15.99940
3466 OM 3466 OM OM1 3466 -0.550000 15.99940
3467 OM 3467 OM OM1 3467 -0.550000 15.99940
3468 OM 3468 OM OM1 3468 -0.550000 15.99940
3469 OM 3469 OM OM1 3469 -0.550000 15.99940
3470 OM 3470 OM OM1 3470 -0.550000 15.99940
3471 OM 3471 OM OM1 3471 -0.550000 15.99940
3472 OM 3472 OM OM1 3472 -0.550000 15.99940
3473 OM 3473 OM OM1 3473 -0.550000 15.99940
3474 OM 3474 OM OM1 3474 -0.550000 15.99940
3475 OM 3475 OM OM1 3475 -0.550000 15.99940
3476 OM 3476 OM OM1 3476 -0.550000 15.99940
3477 OM 3477 OM OM1 3477 -0.550000 15.99940
3478 OM 3478 OM OM1 3478 -0.550000 15.99940
3479 OM 3479 OM OM1 3479 -0.550000 15.99940
3480 OM 3480 OM OM1 3480 -0.550000 15.99940
3481 OM 3481 OM OM1 3481 -0.550000 15.99940
3482 OM 3482 OM OM1 3482 -0.550000 15.99940
3483 OM 3483 OM OM1 3483 -0.550000 15.99940
3484 OM 3484 OM OM1 3484 -0.550000 15.99940
3485 OM 3485 OM OM1 3485 -0.550000 15.99940
3486 OM 3486 OM OM1 3486 -0.550000 15.99940
3487 OM 3487 OM OM1 3487 -0.550000 15.99940
3488 OM 3488 OM OM1 3488 -0.550000 15.99940
3489 OM 3489 OM OM1 3489 -0.550000 15.99940
3490 OM 3490 OM OM1 3490 -0.550000 15.99940
3491 OM 3491 OM OM1 3491 -0.550000 15.99940
3492 OM 3492 OM OM1 3492 -0.550000 15.99940
3493 OM 3493 OM OM1 3493 -0.550000 15.99940
3494 OM 3494 OM OM1 3494 -0.550000 15.99940
3495 OM 3495 OM OM1 3495 -0.550000 15.99940
3496 OM 3496 OM OM1 3496 -0.550000 15.99940
3497 OM 3497 OM OM1 3497 -0.550000 15.99940
3498 OM 3498 OM OM1 3498 -0.550000 15.99940
3499 OM 3499 OM OM1 3499 -0.550000 15.99940
3500 OM 3500 OM OM1 3500 -0.550000 15.99940
3501 OM 3501 OM OM1 3501 -0.550000 15.99940
3502 OM 3502 OM OM1 3502 -0.550000 15.99940
3503 OM 3503 OM OM1 3503 -0.550000 15.99940
3504 OM 3504 OM OM1 3504 -0.550000 15.99940
3505 OM 3505 OM OM1 3505 -0.550000 15.99940
3506 OM 3506 OM OM1 3506 -0.550000 15.99940
3507 OM 3507 OM OM1 3507 -0.550000 15.99940
3508 OM 3508 OM OM1 3508 -0.550000 15.99940
3509 OM 3509 OM OM1 3509 -0.550000 15.99940
3510 OM 3510 OM OM1 3510 -0.550000 15.99940
3511 OM 3511 OM OM1 3511 -0.550000 15.99940
3512 OM 3512 OM OM1 3512 -0.550000 15.99940
3513 OM 3513 OM OM1 3513 -0.550000 15.99940
3514 OM 3514 OM OM1 3514 -0.550000 15.99940
3515 OM 3515 OM OM1 3515 -0.550000 15.99940
3516 OM 3516 OM OM1 3516 -0.550000 15.99940
3517 OM 3517 OM OM1 3517 -0.550000 15.99940
3518 OM 3518 OM OM1 3518 -0.550000 15.99940
3519 OM 3519 OM OM1 3519 -0.550000 15.99940
3520 OM 3520 OM OM1 3520 -0.550000 15.99940
3521 OM 3521 OM OM1 3521 -0.550000 15.99940
3522 OM 3522 OM OM1 3522 -0.550000 15.99940
3523 OM 3523 OM OM1 3523 -0.550000 15.99940
3524 OM 3524 OM OM1 3524 -0.550000 15.99940
3525 OM 3525 OM OM1 3525 -0.550000 15.99940
3526 OM 3526 OM OM1 3526 -0.550000 15.99940
3527 OM 3527 OM OM1 3527 -0.550000 15.99940
3528 OM 3528 OM OM1 3528 -0.550000 15.99940
3529 OM 3529 OM OM1 3529 -0.550000 15.99940
3530 OM 3530 OM OM1 3530 -0.550000 15.99940
3531 OM 3531 OM OM1 3531 -0.550000 15.99940
3532 OM 3532 OM OM1 3532 -0.550000 15.99940
3533 OM 3533 OM OM1 3533 -0.550000 15.99940
3534 OM 3534 OM OM1 3534 -0.550000 15.99940
3535 OM 3535 OM OM1 3535 -0.550000 15.99940
3536 OM 3536 OM OM1 3536 -0.550000 15.99940
3537 OM 3537 OM OM1 3537 -0.550000 15.99940
3538 OM 3538 OM OM1 3538 -0.550000 15.99940
3539 OM 3539 OM OM1 3539 -0.550000 15.99940
3540 OM 3540 OM OM1 3540 -0.550000 15.99940
3541 OM 3541 OM OM1 3541 -0.550000 15.99940
3542 OM 3542 OM OM1 3542 -0.550000 15.99940
3543 OM 3543 OM OM1 3543 -0.550000 15.99940
3544 OM 3544 OM OM1 3544 -0.550000 15.99940
3545 OM 3545 OM OM1 3545 -0.550000 15.99940
3546 OM 3546 OM OM1 3546 -0.550000 15.99940
3547 OM 3547 OM OM1 3547 -0.550000 15.99940
3548 OM 3548 OM OM1 3548 -0.550000 15.99940
3549 OM 3549 OM OM1 3549 -0.550000 15.99940
3550 OM 3550 OM OM1 3550 -0.550000 15.99940
3551 OM 3551 OM OM1 3551 -0.550000 15.99940
3552 OM 3552 OM OM1 3552 -0.550000 15.99940
3553 OM 3553 OM OM1 3553 -0.550000 15.99940
3554 OM 3554 OM OM1 3554 -0.550000 15.99940
3555 OM 3555 OM OM1 3555 -0.550000 15.99940
3556 OM 3556 OM OM1 3556 -0.550000 15.99940
3557 OM 3557 OM OM1 3557 -0.550000 15.99940
3558 OM 3558 OM OM1 3558 -0.550000 15.99940
3559 OM 3559 OM OM1 3559 -0.550000 15.99940
3560 OM 3560 OM OM1 3560 -0.550000 15.99940
3561 OM 3561 OM OM1 3561 -0.550000 15.99940
3562 OM 3562 OM OM1 3562 -0.550000 15.99940
3563 OM 3563 OM OM1 3563 -0.550000 15.99940
3564 OM 3564 OM OM1 3564 -0.550000 15.99940
3565 OM 3565 OM OM1 3565 -0.550000 15.99940
3566 OM 3566 OM OM1 3566 -0.550000 15.99940
3567 OM 3567 OM OM1 3567 -0.550000 15.99940
3568 OM 3568 OM OM1 3568 -0.550000 15.99940
3569 OM 3569 OM OM1 3569 -0.550000 15.99940
3570 OM 3570 OM OM1 3570 -0.550000 15.99940
3571 OM 3571 OM OM1 3571 -0.550000 15.99940
3572 OM 3572 OM OM1 3572 -0.550000 15.99940
3573 OM 3573 OM OM1 3573 -0.550000 15.99940
3574 OM 3574 OM OM1 3574 -0.550000 15.99940
3575 OM 3575 OM OM1 3575 -0.550000 15.99940
3576 OM 3576 OM OM1 3576 -0.550000 15.99940
3577 OM 3577 OM OM1 3577 -0.550000 15.99940
3578 OM 3578 OM OM1 3578 -0.550000 15.99940
3579 OM 3579 OM OM1 3579 -0.550000 15.99940
3580 OM 3580 OM OM1 3580 -0.550000 15.99940
3581 OM 3581 OM OM1 3581 -0.550000 15.99940
3582 OM 3582 OM OM1 3582 -0.550000 15.99940
3583 OM 3583 OM OM1 3583 -0.550000 15.99940
3584 OM 3584 OM OM1 3584 -0.550000 15.99940
3585 OM 3585 OM OM1 3585 -0.550000 15.99940
3586 OM 3586 OM OM1 3586 -0.550000 15.99940
3587 OM 3587 OM OM1 3587 -0.550000 15.99940
3588 OM 3588 OM OM1 3588 -0.550000 15.99940
3589 OM 3589 OM OM1 3589 -0.550000 15.99940
3590 OM 3590 OM OM1 3590 -0.550000 15.99940
3591 OM 3591 OM OM1 3591 -0.550000 15.99940
3592 OM 3592 OM OM1 3592 -0.550000 15.99940
3593 OM 3593 OM OM1 3593 -0.550000 15.99940
3594 OM 3594 OM OM1 3594 -0.550000 15.99940
3595 OM 3595 OM OM1 3595 -0.550000 15.99940
3596 OM 3596 OM OM1 3596 -0.550000 15.99940
3597 OM 3597 OM OM1 3597 -0.550000 15.99940
3598 OM 3598 OM OM1 3598 -0.550000 15.99940
3599 OM 3599 OM OM1 3599 -0.550000 15.99940
3600 OM 3600 OM OM1 3600 -0.550000 15.99940
3601 OM 3601 OM OM1 3601 -0.550000 15.99940
3602 OM 3602 OM OM1 3602 -0.550000 15.99940
3603 OM 3603 OM OM1 3603 -0.550000 15.99940
3604 OM 3604 OM OM1 3604 -0.550000 15.99940
3605 OM 3605 OM OM1 3605 -0.550000 15.99940
3606 OM 3606 OM OM1 3606 -0.550000 15.99940
3607 OM 3607 OM OM1 3607 -0.550000 15.99940
3608 OM 3608 OM OM1 3608 -0.550000 15.99940
3609 OM 3609 OM OM1 3609 -0.550000 15.99940
3610 OM 3610 OM OM1 3610 -0.550000 15.99940
3611 OM 3611 OM OM1 3611 -0.550000 15.99940
3612 OM 3612 OM OM1 3612 -0.550000 15.99940
3613 OM 3613 OM OM1 3613 -0.550000 15.99940
3614 OM 3614 OM OM1 3614 -0.550000 15.99940
3615 OM 3615 OM OM1 3615 -0.550000 15.99940
3616 OM 3616 OM OM1 3616 -0.550000 15.99940
3617 OM 3617 OM OM1 3617 -0.550000 15.99940
3618 OM 3618 OM OM1 3618 -0.550000 15.99940
3619 OM 3619 OM OM1 3619 -0.550000 15.99940
3620 OM 3620 OM OM1 3620 -0.550000 15.99940
3621 OM 3621 OM OM1 3621 -0.550000 15.99940
3622 OM 3622 OM OM1 3622 -0.550000 15.99940
3623 OM 3623 OM OM1 3623 -0.550000 15.99940
3624 OM 3624 OM OM1 3624 -0.550000 15.99940
3625 OM 3625 OM OM1 3625 -0.550000 15.99940
3626 OM 3626 OM OM1 3626 -0.550000 15.99940
3627 OM 3627 OM OM1 3627 -0.550000 15.99940
3628 OM 3628 OM OM1 3628 -0.550000 15.99940
3629 OM 3629 OM OM1 3629 -0.550000 15.99940
3630 OM 3630 OM OM1 3630 -0.550000 15.99940
3631 OM 3631 OM OM1 3631 -0.550000 15.99940
3632 OM 3632 OM OM1 3632 -0.550000 15.99940
3633 OM 3633 OM OM1 3633 -0.550000 15.99940
3634 OM 3634 OM OM1 3634 -0.550000 15.99940
3635 OM 3635 OM OM1 3635 -0.550000 15.99940
3636 OM 3636 OM OM1 3636 -0.550000 15.99940
3637 OM 3637 OM OM1 3637 -0.550000 15.99940
3638 OM 3638 OM OM1 3638 -0.550000 15.99940
3639 OM 3639 OM OM1 3639 -0.550000 15.99940
3640 OM 3640 OM OM1 3640 -0.550000 15.99940
3641 OM 3641 OM OM1 3641 -0.550000 15.99940
3642 OM 3642 OM OM1 3642 -0.550000 15.99940
3643 OM 3643 OM OM1 3643 -0.550000 15.99940
3644 OM 3644 OM OM1 3644 -0.550000 15.99940
3645 OM 3645 OM OM1 3645 -0.550000 15.99940
3646 OM 3646 OM OM1 3646 -0.550000 15.99940
3647 OM 3647 OM OM1 3647 -0.550000 15.99940
3648 OM 3648 OM OM1 3648 -0.550000 15.99940
3649 OM 3649 OM OM1 3649 -0.550000 15.99940
3650 OM 3650 OM OM1 3650 -0.550000 15.99940
3651 OM 3651 OM OM1 3651 -0.550000 15.99940
3652 OM 3652 OM OM1 3652 -0.550000 15.99940
3653 OM 3653 OM OM1 3653 -0.550000 15.99940
3654 OM 3654 OM OM1 3654 -0.550000 15.99940
3655 OM 3655 OM OM1 3655 -0.550000 15.99940
3656 OM 3656 OM OM1 3656 -0.550000 15.99940
3657 OM 3657 OM OM1 3657 -0.550000 15.99940
3658 OM 3658 OM OM1 3658 -0.550000 15.99940
3659 OM 3659 OM OM1 3659 -0.550000 15.99940
3660 OM 3660 OM OM1 3660 -0.550000 15.99940
3661 OM 3661 OM OM1 3661 -0.550000 15.99940
3662 OM 3662 OM OM1 3662 -0.550000 15.99940
3663 OM 3663 OM OM1 3663 -0.550000 15.99940
3664 OM 3664 OM OM1 3664 -0.550000 15.99940
3665 OM 3665 OM OM1 3665 -0.550000 15.99940
3666 OM 3666 OM OM1 3666 -0.550000 15.99940
3667 OM 3667 OM OM1 3667 -0.550000 15.99940
3668 OM 3668 OM OM1 3668 -0.550000 15.99940
3669 OM 3669 OM OM1 3669 -0.550000 15.99940
3670 OM 3670 OM OM1 3670 -0.550000 15.99940
3671 OM 3671 OM OM1 3671 -0.550000 15.99940
3672 OM 3672 OM OM1 3672 -0.550000 15.99940
3673 OM 3673 OM OM1 3673 -0.550000 15.99940
3674 OM 3674 OM OM1 3674 -0.550000 15.99940
3675 OM 3675 OM OM1 3675 -0.550000 15.99940
3676 OM 3676 OM OM1 3676 -0.550000 15.99940
3677 OM 3677 OM OM1 3677 -0.550000 15.99940
3678 OM 3678 OM OM1 3678 -0.550000 15.99940
3679 OM 3679 OM OM1 3679 -0.550000 15.99940
3680 OM 3680 OM OM1 3680 -0.550000 15.99940
3681 OM 3681 OM OM1 3681 -0.550000 15.99940
3682 OM 3682 OM OM1 3682 -0.550000 15.99940
3683 OM 3683 OM OM1 3683 -0.550000 15.99940
3684 OM 3684 OM OM1 3684 -0.550000 15.99940
3685 OM 3685 OM OM1 3685 -0.550000 15.99940
3686 OM 3686 OM OM1 3686 -0.550000 15.99940
3687 OM 3687 OM OM1 3687 -0.550000 15.99940
3688 OM 3688 OM OM1 3688 -0.550000 15.99940
3689 OM 3689 OM OM1 3689 -0.550000 15.99940
3690 OM 3690 OM OM1 3690 -0.550000 15.99940
3691 OM 3691 OM OM1 3691 -0.550000 15.99940
3692 OM 3692 OM OM1 3692 -0.550000 15.99940
3693 OM 3693 OM OM1 3693 -0.550000 15.99940
3694 OM 3694 OM OM1 3694 -0.550000 15.99940
3695 OM 3695 OM OM1 3695 -0.550000 15.99940
3696 OM 3696 OM OM1 3696 -0.550000 15.99940
3697 OM 3697 OM OM1 3697 -0.550000 15.99940
3698 OM 3698 OM OM1 3698 -0.550000 15.99940
3699 OM 3699 OM OM1 3699 -0.550000 15.99940
3700 OM 3700 OM OM1 3700 -0.550000 15.99940
3701 OM 3701 OM OM1 3701 -0.550000 15.99940
3702 OM 3702 OM OM1 3702 -0.550000 15.99940
3703 OM 3703 OM OM1 3703 -0.550000 15.99940
3704 OM 3704 OM OM1 3704 -0.550000 15.99940
3705 OM 3705 OM OM1 3705 -0.550000 15.99940
3706 OM 3706 OM OM1 3706 -0.550000 15.99940
3707 OM 3707 OM OM1 3707 -0.550000 15.99940
3708 OM 3708 OM OM1 3708 -0.550000 15.99940
3709 OM 3709 OM OM1 3709 -0.550000 15.99940
3710 OM 3710 OM OM1 3710 -0.550000 15.99940
3711 OM 3711 OM OM1 3711 -0.550000 15.99940
3712 OM 3712 OM OM1 3712 -0.550000 15.99940
3713 OM 3713 OM OM1 3713 -0.550000 15.99940
3714 OM 3714 OM OM1 3714 -0.550000 15.99940
3715 OM 3715 OM OM1 3715 -0.550000 15.99940
3716 OM 3716 OM OM1 3716 -0.550000 15.99940
3717 OM 3717 OM OM1 3717 -0.550000 15.99940
3718 OM 3718 OM OM1 3718 -0.550000 15.99940
3719 OM 3719 OM OM1 3719 -0.550000 15.99940
3720 OM 3720 OM OM1 3720 -0.550000 15.99940
3721 OM 3721 OM OM1 3721 -0.550000 15.99940
3722 OM 3722 OM OM1 3722 -0.550000 15.99940
3723 OM 3723 OM OM1 3723 -0.550000 15.99940
3724 OM 3724 OM OM1 3724 -0.550000 15.99940
3725 OM 3725 OM OM1 3725 -0.550000 15.99940
3726 OM 3726 OM OM1 3726 -0.550000 15.99940
3727 OM 3727 OM OM1 3727 -0.550000 15.99940
3728 OM 3728 OM OM1 3728 -0.550000 15.99940
3729 OM 3729 OM OM1 3729 -0.550000 15.99940
3730 OM 3730 OM OM1 3730 -0.550000 15.99940
3731 OM 3731 OM OM1 3731 -0.550000 15.99940
3732 OM 3732 OM OM1 3732 -0.550000 15.99940
3733 OM 3733 OM OM1 3733 -0.550000 15.99940
3734 OM 3734 OM OM1 3734 -0.550000 15.99940
3735 OM 3735 OM OM1 3735 -0.550000 15.99940
3736 OM 3736 OM OM1 3736 -0.550000 15.99940
3737 OM 3737 OM OM1 3737 -0.550000 15.99940
3738 OM 3738 OM OM1 3738 -0.550000 15.99940
3739 OM 3739 OM OM1 3739 -0.550000 15.99940
3740 OM 3740 OM OM1 3740 -0.550000 15.99940
3741 OM 3741 OM OM1 3741 -0.550000 15.99940
3742 OM 3742 OM OM1 3742 -0.550000 15.99940
3743 OM 3743 OM OM1 3743 -0.550000 15.99940
3744 OM 3744 OM OM1 3744 -0.550000 15.99940
3745 OM 3745 OM OM1 3745 -0.550000 15.99940
3746 OM 3746 OM OM1 3746 -0.550000 15.99940
3747 OM 3747 OM OM1 3747 -0.550000 15.99940
3748 OM 3748 OM OM1 3748 -0.550000 15.99940
3749 OM 3749 OM OM1 3749 -0.550000 15.99940
3750 OM 3750 OM OM1 3750 -0.550000 15.99940
3751 OM 3751 OM OM1 3751 -0.550000 15.99940
3752 OM 3752 OM OM1 3752 -0.550000 15.99940
3753 OM 3753 OM OM1 3753 -0.550000 15.99940
3754 OM 3754 OM OM1 3754 -0.550000 15.99940
3755 OM 3755 OM OM1 3755 -0.550000 15.99940
3756 OM 3756 OM OM1 3756 -0.550000 15.99940
3757 OM 3757 OM OM1 3757 -0.550000 15.99940
3758 OM 3758 OM OM1 3758 -0.550000 15.99940
3759 OM 3759 OM OM1 3759 -0.550000 15.99940
3760 OM 3760 OM OM1 3760 -0.550000 15.99940
3761 OM 3761 OM OM1 3761 -0.550000 15.99940
3762 OM 3762 OM OM1 3762 -0.550000 15.99940
3763 OM 3763 OM OM1 3763 -0.550000 15.99940
3764 OM 3764 OM OM1 3764 -0.550000 15.99940
3765 OM 3765 OM OM1 3765 -0.550000 15.99940
3766 OM 3766 OM OM1 3766 -0.550000 15.99940
3767 OM 3767 OM OM1 3767 -0.550000 15.99940
3768 OM 3768 OM OM1 3768 -0.550000 15.99940
3769 OM 3769 OM OM1 3769 -0.550000 15.99940
3770 OM 3770 OM OM1 3770 -0.550000 15.99940
3771 OM 3771 OM OM1 3771 -0.550000 15.99940
3772 OM 3772 OM OM1 3772 -0.550000 15.99940
3773 OM 3773 OM OM1 3773 -0.550000 15.99940
3774 OM 3774 OM OM1 3774 -0.550000 15.99940
3775 OM 3775 OM OM1 3775 -0.550000 15.99940
3776 OM 3776 OM OM1 3776 -0.550000 15.99940
3777 OM 3777 OM OM1 3777 -0.550000 15.99940
3778 OM 3778 OM OM1 3778 -0.550000 15.99940
3779 OM 3779 OM OM1 3779 -0.550000 15.99940
3780 OM 3780 OM OM1 3780 -0.550000 15.99940
3781 OM 3781 OM OM1 3781 -0.550000 15.99940
3782 OM 3782 OM OM1 3782 -0.550000 15.99940
3783 OM 3783 OM OM1 3783 -0.550000 15.99940
3784 OM 3784 OM OM1 3784 -0.550000 15.99940
3785 OM 3785 OM OM1 3785 -0.550000 15.99940
3786 OM 3786 OM OM1 3786 -0.550000 15.99940
3787 OM 3787 OM OM1 3787 -0.550000 15.99940
3788 OM 3788 OM OM1 3788 -0.550000 15.99940
3789 OM 3789 OM OM1 3789 -0.550000 15.99940
3790 OM 3790 OM OM1 3790 -0.550000 15.99940
3791 OM 3791 OM OM1 3791 -0.550000 15.99940
3792 OM 3792 OM OM1 3792 -0.550000 15.99940
3793 OM 3793 OM OM1 3793 -0.550000 15.99940
3794 OM 3794 OM OM1 3794 -0.550000 15.99940
3795 OM 3795 OM OM1 3795 -0.550000 15.99940
3796 OM 3796 OM OM1 3796 -0.550000 15.99940
3797 OM 3797 OM OM1 3797 -0.550000 15.99940
3798 OM 3798 OM OM1 3798 -0.550000 15.99940
3799 OM 3799 OM OM1 3799 -0.550000 15.99940
3800 OM 3800 OM OM1 3800 -0.550000 15.99940
3801 OM 3801 OM OM1 3801 -0.550000 15.99940
3802 OM 3802 OM OM1 3802 -0.550000 15.99940
3803 OM 3803 OM OM1 3803 -0.550000 15.99940
3804 OM 3804 OM OM1 3804 -0.550000 15.99940
3805 OM 3805 OM OM1 3805 -0.550000 15.99940
3806 OM 3806 OM OM1 3806 -0.550000 15.99940
3807 OM 3807 OM OM1 3807 -0.550000 15.99940
3808 OM 3808 OM OM1 3808 -0.550000 15.99940
3809 OM 3809 OM OM1 3809 -0.550000 15.99940
3810 OM 3810 OM OM1 3810 -0.550000 15.99940
3811 OM 3811 OM OM1 3811 -0.550000 15.99940
3812 OM 3812 OM OM1 3812 -0.550000 15.99940
3813 OM 3813 OM OM1 3813 -0.550000 15.99940
3814 OM 3814 OM OM1 3814 -0.550000 15.99940
3815 OM 3815 OM OM1 3815 -0.550000 15.99940
3816 OM 3816 OM OM1 3816 -0.550000 15.99940
3817 OM 3817 OM OM1 3817 -0.550000 15.99940
3818 OM 3818 OM OM1 3818 -0.550000 15.99940
3819 OM 3819 OM OM1 3819 -0.550000 15.99940
3820 OM 3820 OM OM1 3820 -0.550000 15.99940
3821 OM 3821 OM OM1 3821 -0.550000 15.99940
3822 OM 3822 OM OM1 3822 -0.550000 15.99940
3823 OM 3823 OM OM1 3823 -0.550000 15.99940
3824 OM 3824 OM OM1 3824 -0.550000 15.99940
3825 OM 3825 OM OM1 3825 -0.550000 15.99940
3826 OM 3826 OM OM1 3826 -0.550000 15.99940
3827 OM 3827 OM OM1 3827 -0.550000 15.99940
3828 OM 3828 OM OM1 3828 -0.550000 15.99940
3829 OM 3829 OM OM1 3829 -0.550000 15.99940
3830 OM 3830 OM OM1 3830 -0.550000 15.99940
3831 OM 3831 OM OM1 3831 -0.550000 15.99940
3832 OM 3832 OM OM1 3832 -0.550000 15.99940
3833 OM 3833 OM OM1 3833 -0.550000 15.99940
3834 OM 3834 OM OM1 3834 -0.550000 15.99940
3835 OM 3835 OM OM1 3835 -0.550000 15.99940
3836 OM 3836 OM OM1 3836 -0.550000 15.99940
3837 OM 3837 OM OM1 3837 -0.550000 15.99940
3838 OM 3838 OM OM1 3838 -0.550000 15.99940
3839 OM 3839 OM OM1 3839 -0.550000 15.99940
3840 OM 3840 OM OM1 3840 -0.550000 15.99940
3841 OM 3841 OM OM1 3841 -0.550000 15.99940
3842 OM 3842 OM OM1 3842 -0.550000 15.99940
3843 OM 3843 OM OM1 3843 -0.550000 15.99940
3844 OM 3844 OM OM1 3844 -0.550000 15.99940
3845 OM 3845 OM OM1 3845 -0.550000 15.99940
3846 OM 3846 OM OM1 3846 -0.550000 15.99940
3847 OM 3847 OM OM1 3847 -0.550000 15.99940
3848 OM 3848 OM OM1 3848 -0.550000 15.99940
3849 OM 3849 OM OM1 3849 -0.550000 15.99940
3850 OM 3850 OM OM1 3850 -0.550000 15.99940
3851 OM 3851 OM OM1 3851 -0.550000 15.99940
3852 OM 3852 OM OM1 3852 -0.550000 15.99940
3853 OM 3853 OM OM1 3853 -0.550000 15.99940
3854 OM 3854 OM OM1 3854 -0.550000 15.99940
3855 OM 3855 OM OM1 3855 -0.550000 15.99940
3856 OM 3856 OM OM1 3856 -0.550000 15.99940
3857 OM 3857 OM OM1 3857 -0.550000 15.99940
3858 OM 3858 OM OM1 3858 -0.550000 15.99940
3859 OM 3859 OM OM1 3859 -0.550000 15.99940
3860 OM 3860 OM OM1 3860 -0.550000 15.99940
3861 OM 3861 OM OM1 3861 -0.550000 15.99940
3862 OM 3862 OM OM1 3862 -0.550000 15.99940
3863 OM 3863 OM OM1 3863 -0.550000 15.99940
3864 OM 3864 OM OM1 3864 -0.550000 15.99940
3865 OM 3865 OM OM1 3865 -0.550000 15.99940
3866 OM 3866 OM OM1 3866 -0.550000 15.99940
3867 OM 3867 OM OM1 3867 -0.550000 15.99940
3868 OM 3868 OM OM1 3868 -0.550000 15.99940
3869 OM 3869 OM OM1 3869 -0.550000 15.99940
3870 OM 3870 OM OM1 3870 -0.550000 15.99940
3871 OM 3871 OM OM1 3871 -0.550000 15.99940
3872 OM 3872 OM OM1 3872 -0.550000 15.99940
3873 OM 3873 OM OM1 3873 -0.550000 15.99940
3874 OM 3874 OM OM1 3874 -0.550000 15.99940
3875 OM 3875 OM OM1 3875 -0.550000 15.99940
3876 OM 3876 OM OM1 3876 -0.550000 15.99940
3877 OM 3877 OM OM1 3877 -0.550000 15.99940
3878 OM 3878 OM OM1 3878 -0.550000 15.99940
3879 OM 3879 OM OM1 3879 -0.550000 15.99940
3880 OM 3880 OM OM1 3880 -0.550000 15.99940
3881 OM 3881 OM OM1 3881 -0.550000 15.99940
3882 OM 3882 OM OM1 3882 -0.550000 15.99940
3883 OM 3883 OM OM1 3883 -0.550000 15.99940
3884 OM 3884 OM OM1 3884 -0.550000 15.99940
3885 OM 3885 OM OM1 3885 -0.550000 15.99940
3886 OM 3886 OM OM1 3886 -0.550000 15.99940
3887 OM 3887 OM OM1 3887 -0.550000 15.99940
3888 OM 3888 OM OM1 3888 -0.550000 15.99940
3889 OM 3889 OM OM1 3889 -0.550000 15.99940
3890 OM 3890 OM OM1 3890 -0.550000 15.99940
3891 OM 3891 OM OM1 3891 -0.550000 15.99940
3892 OM 3892 OM OM1 3892 -0.550000 15.99940
3893 OM 3893 OM OM1 3893 -0.550000 15.99940
3894 OM 3894 OM OM1 3894 -0.550000 15.99940
3895 OM 3895 OM OM1 3895 -0.550000 15.99940
3896 OM 3896 OM OM1 3896 -0.550000 15.99940
3897 OM 3897 OM OM1 3897 -0.550000 15.99940
3898 OM 3898 OM OM1 3898 -0.550000 15.99940
3899 OM 3899 OM OM1 3899 -0.550000 15.99940
3900 OM 3900 OM OM1 3900 -0.550000 15.99940
3901 OM 3901 OM OM1 3901 -0.550000 15.99940
3902 OM 3902 OM OM1 3902 -0.550000 15.99940
3903 OM 3903 OM OM1 3903 -0.550000 15.99940
3904 OM 3904 OM OM1 3904 -0.550000 15.99940
3905 OM 3905 OM OM1 3905 -0.550000 15.99940
3906 OM 3906 OM OM1 3906 -0.550000 15.99940
3907 OM 3907 OM OM1 3907 -0.550000 15.99940
3908 OM 3908 OM OM1 3908 -0.550000 15.99940
3909 OM 3909 OM OM1 3909 -0.550000 15.99940
3910 OM 3910 OM OM1 3910 -0.550000 15.99940
3911 OM 3911 OM OM1 3911 -0.550000 15.99940
3912 OM 3912 OM OM1 3912 -0.550000 15.99940
3913 OM 3913 OM OM1 3913 -0.550000 15.99940
3914 OM 3914 OM OM1 3914 -0.550000 15.99940
3915 OM 3915 OM OM1 3915 -0.550000 15.99940
3916 OM 3916 OM OM1 3916 -0.550000 15.99940
3917 OM 3917 OM OM1 3917 -0.550000 15.99940
3918 OM 3918 OM OM1 3918 -0.550000 15.99940
3919 OM 3919 OM OM1 3919 -0.550000 15.99940
3920 OM 3920 OM OM1 3920 -0.550000 15.99940
3921 OM 3921 OM OM1 3921 -0.550000 15.99940
3922 OM 3922 OM OM1 3922 -0.550000 15.99940
3923 OM 3923 OM OM1 3923 -0.550000 15.99940
3924 OM 3924 OM OM1 3924 -0.550000 15.99940
3925 OM 3925 OM OM1 3925 -0.550000 15.99940
3926 OM 3926 OM OM1 3926 -0.550000 15.99940
3927 OM 3927 OM OM1 3927 -0.550000 15.99940
3928 OM 3928 OM OM1 3928 -0.550000 15.99940
3929 OM 3929 OM OM1 3929 -0.550000 15.99940
3930 OM 3930 OM OM1 3930 -0.550000 15.99940
3931 OM 3931 OM OM1 3931 -0.550000 15.99940
3932 OM 3932 OM OM1 3932 -0.550000 15.99940
3933 OM 3933 OM OM1 3933 -0.550000 15.99940
3934 OM 3934 OM OM1 3934 -0.550000 15.99940
3935 OM 3935 OM OM1 3935 -0.550000 15.99940
3936 OM 3936 OM OM1 3936 -0.550000 15.99940
3937 OM 3937 OM OM1 3937 -0.550000 15.99940
3938 OM 3938 OM OM1 3938 -0.550000 15.99940
3939 OM 3939 OM OM1 3939 -0.550000 15.99940
3940 OM 3940 OM OM1 3940 -0.550000 15.99940
3941 OM 3941 OM OM1 3941 -0.550000 15.99940
3942 OM 3942 OM OM1 3942 -0.550000 15.99940
3943 OM 3943 OM OM1 3943 -0.550000 15.99940
3944 OM 3944 OM OM1 3944 -0.550000 15.99940
3945 OM 3945 OM OM1 3945 -0.550000 15.99940
3946 OM 3946 OM OM1 3946 -0.550000 15.99940
3947 OM 3947 OM OM1 3947 -0.550000 15.99940
3948 OM 3948 OM OM1 3948 -0.550000 15.99940
3949 OM 3949 OM OM1 3949 -0.550000 15.99940
3950 OM 3950 OM OM1 3950 -0.550000 15.99940
3951 OM 3951 OM OM1 3951 -0.550000 15.99940
3952 OM 3952 OM OM1 3952 -0.550000 15.99940
3953 OM 3953 OM OM1 3953 -0.550000 15.99940
3954 OM 3954 OM OM1 3954 -0.550000 15.99940
3955 OM 3955 OM OM1 3955 -0.550000 15.99940
3956 OM 3956 OM OM1 3956 -0.550000 15.99940
3957 OM 3957 OM OM1 3957 -0.550000 15.99940
3958 OM 3958 OM OM1 3958 -0.550000 15.99940
3959 OM 3959 OM OM1 3959 -0.550000 15.99940
3960 OM 3960 OM OM1 3960 -0.550000 15.99940
3961 OM 3961 OM OM1 3961 -0.550000 15.99940
3962 OM 3962 OM OM1 3962 -0.550000 15.99940
3963 OM 3963 OM OM1 3963 -0.550000 15.99940
3964 OM 3964 OM OM1 3964 -0.550000 15.99940
3965 OM 3965 OM OM1 3965 -0.550000 15.99940
3966 OM 3966 OM OM1 3966 -0.550000 15.99940
3967 OM 3967 OM OM1 3967 -0.550000 15.99940
3968 OM 3968 OM OM1 3968 -0.550000 15.99940
3969 OM 3969 OM OM1 3969 -0.550000 15.99940
3970 OM 3970 OM OM1 3970 -0.550000 15.99940
3971 OM 3971 OM OM1 3971 -0.550000 15.99940
3972 OM 3972 OM OM1 3972 -0.550000 15.99940
3973 OM 3973 OM OM1 3973 -0.550000 15.99940
3974 OM 3974 OM OM1 3974 -0.550000 15.99940
3975 OM 3975 OM OM1 3975 -0.550000 15.99940
3976 OM 3976 OM OM1 3976 -0.550000 15.99940
3977 OM 3977 OM OM1 3977 -0.550000 15.99940
3978 OM 3978 OM OM1 3978 -0.550000 15.99940
3979 OM 3979 OM OM1 3979 -0.550000 15.99940
3980 OM 3980 OM OM1 3980 -0.550000 15.99940
3981 OM 3981 OM OM1 3981 -0.550000 15.99940
3982 OM 3982 OM OM1 3982 -0.550000 15.99940
3983 OM 3983 OM OM1 3983 -0.550000 15.99940
3984 OM 3984 OM OM1 3984 -0.550000 15.99940
3985 OM 3985 OM OM1 3985 -0.550000 15.99940
3986 OM 3986 OM OM1 3986 -0.550000 15.99940
3987 OM 3987 OM OM1 3987 -0.550000 15.99940
3988 OM 3988 OM OM1 3988 -0.550000 15.99940
3989 OM 3989 OM OM1 3989 -0.550000 15.99940
3990 OM 3990 OM OM1 3990 -0.550000 15.99940
3991 OM 3991 OM OM1 3991 -0.550000 15.99940
3992 OM 3992 OM OM1 3992 -0.550000 15.99940
3993 OM 3993 OM OM1 3993 -0.550000 15.99940
3994 OM 3994 OM OM1 3994 -0.550000 15.99940
3995 OM 3995 OM OM1 3995 -0.550000 15.99940
3996 OM 3996 OM OM1 3996 -0.550000 15.99940
3997 OM 3997 OM OM1 3997 -0.550000 15.99940
3998 OM 3998 OM OM1 3998 -0.550000 15.99940
3999 OM 3999 OM OM1 3999 -0.550000 15.99940
4000 OM 4000 OM OM1 4000 -0.550000 15.99940
4001 OM 4001 OM OM1 4001 -0.550000 15.99940
4002 OM 4002 OM OM1 4002 -0.550000 15.99940
4003 OM 4003 OM OM1 4003 -0.550000 15.99940
4004 OM 4004 OM OM1 4004 -0.550000 15.99940
4005 OM 4005 OM OM1 4005 -0.550000 15.99940
4006 OM 4006 OM OM1 4006 -0.550000 15.99940
4007 OM 4007 OM OM1 4007 -0.550000 15.99940
4008 OM 4008 OM OM1 4008 -0.550000 15.99940
4009 OM 4009 OM OM1 4009 -0.550000 15.99940
4010 OM 4010 OM OM1 4010 -0.550000 15.99940
4011 OM 4011 OM OM1 4011 -0.550000 15.99940
4012 OM 4012 OM OM1 4012 -0.550000 15.99940
4013 OM 4013 OM OM1 4013 -0.550000 15.99940
4014 OM 4014 OM OM1 4014 -0.550000 15.99940
4015 OM 4015 OM OM1 4015 -0.550000 15.99940
4016 OM 4016 OM OM1 4016 -0.550000 15.99940
4017 OM 4017 OM OM1 4017 -0.550000 15.99940
4018 OM 4018 OM OM1 4018 -0.550000 15.99940
4019 OM 4019 OM OM1 4019 -0.550000 15.99940
4020 OM 4020 OM OM1 4020 -0.550000 15.99940
4021 OM 4021 OM OM1 4021 -0.550000 15.99940
4022 OM 4022 OM OM1 4022 -0.550000 15.99940
4023 OM 4023 OM OM1 4023 -0.550000 15.99940
4024 OM 4024 OM OM1 4024 -0.550000 15.99940
4025 OM 4025 OM OM1 4025 -0.550000 15.99940
4026 OM 4026 OM OM1 4026 -0.550000 15.99940
4027 OM 4027 OM OM1 4027 -0.550000 15.99940
4028 OM 4028 OM OM1 4028 -0.550000 15.99940
4029 OM 4029 OM OM1 4029 -0.550000 15.99940
4030 OM 4030 OM OM1 4030 -0.550000 15.99940
4031 OM 4031 OM OM1 4031 -0.550000 15.99940
4032 OM 4032 OM OM1 4032 -0.550000 15.99940
4033 OM 4033 OM OM1 4033 -0.550000 15.99940
4034 OM 4034 OM OM1 4034 -0.550000 15.99940
4035 OM 4035 OM OM1 4035 -0.550000 15.99940
4036 OM 4036 OM OM1 4036 -0.550000 15.99940
4037 OM 4037 OM OM1 4037 -0.550000 15.99940
4038 OM 4038 OM OM1 4038 -0.550000 15.99940
4039 OM 4039 OM OM1 4039 -0.550000 15.99940
4040 OM 4040 OM OM1 4040 -0.550000 15.99940
4041 OM 4041 OM OM1 4041 -0.550000 15.99940
4042 OM 4042 OM OM1 4042 -0.550000 15.99940
4043 OM 4043 OM OM1 4043 -0.550000 15.99940
4044 OM 4044 OM OM1 4044 -0.550000 15.99940
4045 OM 4045 OM OM1 4045 -0.550000 15.99940
4046 OM 4046 OM OM1 4046 -0.550000 15.99940
4047 OM 4047 OM OM1 4047 -0.550000 15.99940
4048 OM 4048 OM OM1 4048 -0.550000 15.99940
4049 OM 4049 OM OM1 4049 -0.550000 15.99940
4050 OM 4050 OM OM1 4050 -0.550000 15.99940
4051 OM 4051 OM OM1 4051 -0.550000 15.99940
4052 OM 4052 OM OM1 4052 -0.550000 15.99940
4053 OM 4053 OM OM1 4053 -0.550000 15.99940
4054 OM 4054 OM OM1 4054 -0.550000 15.99940
4055 OM 4055 OM OM1 4055 -0.550000 15.99940
4056 OM 4056 OM OM1 4056 -0.550000 15.99940
4057 OM 4057 OM OM1 4057 -0.550000 15.99940
4058 OM 4058 OM OM1 4058 -0.550000 15.99940
4059 OM 4059 OM OM1 4059 -0.550000 15.99940
4060 OM 4060 OM OM1 4060 -0.550000 15.99940
4061 OM 4061 OM OM1 4061 -0.550000 15.99940
4062 OM 4062 OM OM1 4062 -0.550000 15.99940
4063 OM 4063 OM OM1 4063 -0.550000 15.99940
4064 OM 4064 OM OM1 4064 -0.550000 15.99940
4065 OM 4065 OM OM1 4065 -0.550000 15.99940
4066 OM 4066 OM OM1 4066 -0.550000 15.99940
4067 OM 4067 OM OM1 4067 -0.550000 15.99940
4068 OM 4068 OM OM1 4068 -0.550000 15.99940
4069 OM 4069 OM OM1 4069 -0.550000 15.99940
4070 OM 4070 OM OM1 4070 -0.550000 15.99940
4071 OM 4071 OM OM1 4071 -0.550000 15.99940
4072 OM 4072 OM OM1 4072 -0.550000 15.99940
4073 OM 4073 OM OM1 4073 -0.550000 15.99940
4074 OM 4074 OM OM1 4074 -0.550000 15.99940
4075 OM 4075 OM OM1 4075 -0.550000 15.99940
4076 OM 4076 OM OM1 4076 -0.550000 15.99940
4077 OM 4077 OM OM1 4077 -0.550000 15.99940
4078 OM 4078 OM OM1 4078 -0.550000 15.99940
4079 OM 4079 OM OM1 4079 -0.550000 15.99940
4080 OM 4080 OM OM1 4080 -0.550000 15.99940
4081 OM 4081 OM OM1 4081 -0.550000 15.99940
4082 OM 4082 OM OM1 4082 -0.550000 15.99940
4083 OM 4083 OM OM1 4083 -0.550000 15.99940
4084 OM 4084 OM OM1 4084 -0.550000 15.99940
4085 OM 4085 OM OM1 4085 -0.550000 15.99940
4086 OM 4086 OM OM1 4086 -0.550000 15.99940
4087 OM 4087 OM OM1 4087 -0.550000 15.99940
4088 OM 4088 OM OM1 4088 -0.550000 15.99940
4089 OM 4089 OM OM1 4089 -0.550000 15.99940
4090 OM 4090 OM OM1 4090 -0.550000 15.99940
4091 OM 4091 OM OM1 4091 -0.550000 15.99940
4092 OM 4092 OM OM1 4092 -0.550000 15.99940
4093 OM 4093 OM OM1 4093 -0.550000 15.99940
4094 OM 4094 OM OM1 4094 -0.550000 15.99940
4095 OM 4095 OM OM1 4095 -0.550000 15.99940
4096 OM 4096 OM OM1 4096 -0.550000 15.99940
4097 OM 4097 OM OM1 4097 -0.550000 15.99940
4098 OM 4098 OM OM1 4098 -0.550000 15.99940
4099 OM 4099 OM OM1 4099 -0.550000 15.99940
4100 OM 4100 OM OM1 4100 -0.550000 15.99940
4101 OM 4101 OM OM1 4101 -0.550000 15.99940
4102 OM 4102 OM OM1 4102 -0.550000 15.99940
4103 OM 4103 OM OM1 4103 -0.550000 15.99940
4104 OM 4104 OM OM1 4104 -0.550000 15.99940
4105 OM 4105 OM OM1 4105 -0.550000 15.99940
4106 OM 4106 OM OM1 4106 -0.550000 15.99940
4107 OM 4107 OM OM1 4107 -0.550000 15.99940
4108 OM 4108 OM OM1 4108 -0.550000 15.99940
4109 OM 4109 OM OM1 4109 -0.550000 15.99940
4110 OM 4110 OM OM1 4110 -0.550000 15.99940
4111 OM 4111 OM OM1 4111 -0.550000 15.99940
4112 OM 4112 OM OM1 4112 -0.550000 15.99940
4113 OM 4113 OM OM1 4113 -0.550000 15.99940
4114 OM 4114 OM OM1 4114 -0.550000 15.99940
4115 OM 4115 OM OM1 4115 -0.550000 15.99940
4116 OM 4116 OM OM1 4116 -0.550000 15.99940
4117 OM 4117 OM OM1 4117 -0.550000 15.99940
4118 OM 4118 OM OM1 4118 -0.550000 15.99940
4119 OM 4119 OM OM1 4119 -0.550000 15.99940
4120 OM 4120 OM OM1 4120 -0.550000 15.99940
4121 OM 4121 OM OM1 4121 -0.550000 15.99940
4122 OM 4122 OM OM1 4122 -0.550000 15.99940
4123 OM 4123 OM OM1 4123 -0.550000 15.99940
4124 OM 4124 OM OM1 4124 -0.550000 15.99940
4125 OM 4125 OM OM1 4125 -0.550000 15.99940
4126 OM 4126 OM OM1 4126 -0.550000 15.99940
4127 OM 4127 OM OM1 4127 -0.550000 15.99940
4128 OM 4128 OM OM1 4128 -0.550000 15.99940
4129 OM 4129 OM OM1 4129 -0.550000 15.99940
4130 OM 4130 OM OM1 4130 -0.550000 15.99940
4131 OM 4131 OM OM1 4131 -0.550000 15.99940
4132 OM 4132 OM OM1 4132 -0.550000 15.99940
4133 OM 4133 OM OM1 4133 -0.550000 15.99940
4134 OM 4134 OM OM1 4134 -0.550000 15.99940
4135 OM 4135 OM OM1 4135 -0.550000 15.99940
4136 OM 4136 OM OM1 4136 -0.550000 15.99940
4137 OM 4137 OM OM1 4137 -0.550000 15.99940
4138 OM 4138 OM OM1 4138 -0.550000 15.99940
4139 OM 4139 OM OM1 4139 -0.550000 15.99940
4140 OM 4140 OM OM1 4140 -0.550000 15.99940
4141 OM 4141 OM OM1 4141 -0.550000 15.99940
4142 OM 4142 OM OM1 4142 -0.550000 15.99940
4143 OM 4143 OM OM1 4143 -0.550000 15.99940
4144 OM 4144 OM OM1 4144 -0.550000 15.99940
4145 OM 4145 OM OM1 4145 -0.550000 15.99940
4146 OM 4146 OM OM1 4146 -0.550000 15.99940
4147 OM 4147 OM OM1 4147 -0.550000 15.99940
4148 OM 4148 OM OM1 4148 -0.550000 15.99940
4149 OM 4149 OM OM1 4149 -0.550000 15.99940
4150 OM 4150 OM OM1 4150 -0.550000 15.99940
4151 OM 4151 OM OM1 4151 -0.550000 15.99940
4152 OM 4152 OM OM1 4152 -0.550000 15.99940
4153 OM 4153 OM OM1 4153 -0.550000 15.99940
4154 OM 4154 OM OM1 4154 -0.550000 15.99940
4155 OM 4155 OM OM1 4155 -0.550000 15.99940
4156 OM 4156 OM OM1 4156 -0.550000 15.99940
4157 OM 4157 OM OM1 4157 -0.550000 15.99940
4158 OM 4158 OM OM1 4158 -0.550000 15.99940
4159 OM 4159 OM OM1 4159 -0.550000 15.99940
4160 OM 4160 OM OM1 4160 -0.550000 15.99940
4161 OM 4161 OM OM1 4161 -0.550000 15.99940
4162 OM 4162 OM OM1 4162 -0.550000 15.99940
4163 OM 4163 OM OM1 4163 -0.550000 15.99940
4164 OM 4164 OM OM1 4164 -0.550000 15.99940
4165 OM 4165 OM OM1 4165 -0.550000 15.99940
4166 OM 4166 OM OM1 4166 -0.550000 15.99940
4167 OM 4167 OM OM1 4167 -0.550000 15.99940
4168 OM 4168 OM OM1 4168 -0.550000 15.99940
4169 OM 4169 OM OM1 4169 -0.550000 15.99940
4170 OM 4170 OM OM1 4170 -0.550000 15.99940
4171 OM 4171 OM OM1 4171 -0.550000 15.99940
4172 OM 4172 OM OM1 4172 -0.550000 15.99940
4173 OM 4173 OM OM1 4173 -0.550000 15.99940
4174 OM 4174 OM OM1 4174 -0.550000 15.99940
4175 OM 4175 OM OM1 4175 -0.550000 15.99940
4176 OM 4176 OM OM1 4176 -0.550000 15.99940
4177 OM 4177 OM OM1 4177 -0.550000 15.99940
4178 OM 4178 OM OM1 4178 -0.550000 15.99940
4179 OM 4179 OM OM1 4179 -0.550000 15.99940
4180 OM 4180 OM OM1 4180 -0.550000 15.99940
4181 OM 4181 OM OM1 4181 -0.550000 15.99940
4182 OM 4182 OM OM1 4182 -0.550000 15.99940
4183 OM 4183 OM OM1 4183 -0.550000 15.99940
4184 OM 4184 OM OM1 4184 -0.550000 15.99940
4185 OM 4185 OM OM1 4185 -0.550000 15.99940
4186 OM 4186 OM OM1 4186 -0.550000 15.99940
4187 OM 4187 OM OM1 4187 -0.550000 15.99940
4188 OM 4188 OM OM1 4188 -0.550000 15.99940
4189 OM 4189 OM OM1 4189 -0.550000 15.99940
4190 OM 4190 OM OM1 4190 -0.550000 15.99940
4191 OM 4191 OM OM1 4191 -0.550000 15.99940
4192 OM 4192 OM OM1 4192 -0.550000 15.99940
4193 OM 4193 OM OM1 4193 -0.550000 15.99940
4194 OM 4194 OM OM1 4194 -0.550000 15.99940
4195 OM 4195 OM OM1 4195 -0.550000 15.99940
4196 OM 4196 OM OM1 4196 -0.550000 15.99940
4197 OM 4197 OM OM1 4197 -0.550000 15.99940
4198 OM 4198 OM OM1 4198 -0.550000 15.99940
4199 OM 4199 OM OM1 4199 -0.550000 15.99940
4200 OM 4200 OM OM1 4200 -0.550000 15.99940
4201 OM 4201 OM OM1 4201 -0.550000 15.99940
4202 OM 4202 OM OM1 4202 -0.550000 15.99940
4203 OM 4203 OM OM1 4203 -0.550000 15.99940
4204 OM 4204 OM OM1 4204 -0.550000 15.99940
4205 OM 4205 OM OM1 4205 -0.550000 15.99940
4206 OM 4206 OM OM1 4206 -0.550000 15.99940
4207 OM 4207 OM OM1 4207 -0.550000 15.99940
4208 OM 4208 OM OM1 4208 -0.550000 15.99940
4209 OM 4209 OM OM1 4209 -0.550000 15.99940
4210 OM 4210 OM OM1 4210 -0.550000 15.99940
4211 OM 4211 OM OM1 4211 -0.550000 15.99940
4212 OM 4212 OM OM1 4212 -0.550000 15.99940
4213 OM 4213 OM OM1 4213 -0.550000 15.99940
4214 OM 4214 OM OM1 4214 -0.550000 15.99940
4215 OM 4215 OM OM1 4215 -0.550000 15.99940
4216 OM 4216 OM OM1 4216 -0.550000 15.99940
4217 OM 4217 OM OM1 4217 -0.550000 15.99940
4218 OM 4218 OM OM1 4218 -0.550000 15.99940
4219 OM 4219 OM OM1 4219 -0.550000 15.99940
4220 OM 4220 OM OM1 4220 -0.550000 15.99940
4221 OM 4221 OM OM1 4221 -0.550000 15.99940
4222 OM 4222 OM OM1 4222 -0.550000 15.99940
4223 OM 4223 OM OM1 4223 -0.550000 15.99940
4224 OM 4224 OM OM1 4224 -0.550000 15.99940
4225 OM 4225 OM OM1 4225 -0.550000 15.99940
4226 OM 4226 OM OM1 4226 -0.550000 15.99940
4227 OM 4227 OM OM1 4227 -0.550000 15.99940
4228 OM 4228 OM OM1 4228 -0.550000 15.99940
4229 OM 4229 OM OM1 4229 -0.550000 15.99940
4230 OM 4230 OM OM1 4230 -0.550000 15.99940
4231 OM 4231 OM OM1 4231 -0.550000 15.99940
4232 OM 4232 OM OM1 4232 -0.550000 15.99940
4233 OM 4233 OM OM1 4233 -0.550000 15.99940
4234 OM 4234 OM OM1 4234 -0.550000 15.99940
4235 OM 4235 OM OM1 4235 -0.550000 15.99940
4236 OM 4236 OM OM1 4236 -0.550000 15.99940
4237 OM 4237 OM OM1 4237 -0.550000 15.99940
4238 OM 4238 OM OM1 4238 -0.550000 15.99940
4239 OM 4239 OM OM1 4239 -0.550000 15.99940
4240 OM 4240 OM OM1 4240 -0.550000 15.99940
4241 OM 4241 OM OM1 4241 -0.550000 15.99940
4242 OM 4242 OM OM1 4242 -0.550000 15.99940
4243 OM 4243 OM OM1 4243 -0.550000 15.99940
4244 OM 4244 OM OM1 4244 -0.550000 15.99940
4245 OM 4245 OM OM1 4245 -0.550000 15.99940
4246 OM 4246 OM OM1 4246 -0.550000 15.99940
4247 OM 4247 OM OM1 4247 -0.550000 15.99940
4248 OM 4248 OM OM1 4248 -0.550000 15.99940
4249 OM 4249 OM OM1 4249 -0.550000 15.99940
4250 OM 4250 OM OM1 4250 -0.550000 15.99940
4251 OM 4251 OM OM1 4251 -0.550000 15.99940
4252 OM 4252 OM OM1 4252 -0.550000 15.99940
4253 OM 4253 OM OM1 4253 -0.550000 15.99940
4254 OM 4254 OM OM1 4254 -0.550000 15.99940
4255 OM 4255 OM OM1 4255 -0.550000 15.99940
4256 OM 4256 OM OM1 4256 -0.550000 15.99940
4257 OM 4257 OM OM1 4257 -0.550000 15.99940
4258 OM 4258 OM OM1 4258 -0.550000 15.99940
4259 OM 4259 OM OM1 4259 -0.550000 15.99940
4260 OM 4260 OM OM1 4260 -0.550000 15.99940
4261 OM 4261 OM OM1 4261 -0.550000 15.99940
4262 OM 4262 OM OM1 4262 -0.550000 15.99940
4263 OM 4263 OM OM1 4263 -0.550000 15.99940
4264 OM 4264 OM OM1 4264 -0.550000 15.99940
4265 OM 4265 OM OM1 4265 -0.550000 15.99940
4266 OM 4266 OM OM1 4266 -0.550000 15.99940
4267 OM 4267 OM OM1 4267 -0.550000 15.99940
4268 OM 4268 OM OM1 4268 -0.550000 15.99940
4269 OM 4269 OM OM1 4269 -0.550000 15.99940
4270 OM 4270 OM OM1 4270 -0.550000 15.99940
4271 OM 4271 OM OM1 4271 -0.550000 15.99940
4272 OM 4272 OM OM1 4272 -0.550000 15.99940
4273 OM 4273 OM OM1 4273 -0.550000 15.99940
4274 OM 4274 OM OM1 4274 -0.550000 15.99940
4275 OM 4275 OM OM1 4275 -0.550000 15.99940
4276 OM 4276 OM OM1 4276 -0.550000 15.99940
4277 OM 4277 OM OM1 4277 -0.550000 15.99940
4278 OM 4278 OM OM1 4278 -0.550000 15.99940
4279 OM 4279 OM OM1 4279 -0.550000 15.99940
4280 OM 4280 OM OM1 4280 -0.550000 15.99940
4281 OM 4281 OM OM1 4281 -0.550000 15.99940
4282 OM 4282 OM OM1 4282 -0.550000 15.99940
4283 OM 4283 OM OM1 4283 -0.550000 15.99940
4284 OM 4284 OM OM1 4284 -0.550000 15.99940
4285 OM 4285 OM OM1 4285 -0.550000 15.99940
4286 OM 4286 OM OM1 4286 -0.550000 15.99940
4287 OM 4287 OM OM1 4287 -0.550000 15.99940
4288 OM 4288 OM OM1 4288 -0.550000 15.99940
4289 OM 4289 OM OM1 4289 -0.550000 15.99940
4290 OM 4290 OM OM1 4290 -0.550000 15.99940
4291 OM 4291 OM OM1 4291 -0.550000 15.99940
4292 OM 4292 OM OM1 4292 -0.550000 15.99940
4293 OM 4293 OM OM1 4293 -0.550000 15.99940
4294 OM 4294 OM OM1 4294 -0.550000 15.99940
4295 OM 4295 OM OM1 4295 -0.550000 15.99940
4296 OM 4296 OM OM1 4296 -0.550000 15.99940
4297 OM 4297 OM OM1 4297 -0.550000 15.99940
4298 OM 4298 OM OM1 4298 -0.550000 15.99940
4299 OM 4299 OM OM1 4299 -0.550000 15.99940
4300 OM 4300 OM OM1 4300 -0.550000 15.99940
4301 OM 4301 OM OM1 4301 -0.550000 15.99940
4302 OM 4302 OM OM1 4302 -0.550000 15.99940
4303 OM 4303 OM OM1 4303 -0.550000 15.99940
4304 OM 4304 OM OM1 4304 -0.550000 15.99940
4305 OM 4305 OM OM1 4305 -0.550000 15.99940
4306 OM 4306 OM OM1 4306 -0.550000 15.99940
4307 OM 4307 OM OM1 4307 -0.550000 15.99940
4308 OM 4308 OM OM1 4308 -0.550000 15.99940
4309 OM 4309 OM OM1 4309 -0.550000 15.99940
4310 OM 4310 OM OM1 4310 -0.550000 15.99940
4311 OM 4311 OM OM1 4311 -0.550000 15.99940
4312 OM 4312 OM OM1 4312 -0.550000 15.99940
4313 OM 4313 OM OM1 4313 -0.550000 15.99940
4314 OM 4314 OM OM1 4314 -0.550000 15.99940
4315 OM 4315 OM OM1 4315 -0.550000 15.99940
4316 OM 4316 OM OM1 4316 -0.550000 15.99940
4317 OM 4317 OM OM1 4317 -0.550000 15.99940
4318 OM 4318 OM OM1 4318 -0.550000 15.99940
4319 OM 4319 OM OM1 4319 -0.550000 15.99940
4320 OM 4320 OM OM1 4320 -0.550000 15.99940
4321 OM 4321 OM OM1 4321 -0.550000 15.99940
4322 OM 4322 OM OM1 4322 -0.550000 15.99940
4323 OM 4323 OM OM1 4323 -0.550000 15.99940
4324 OM 4324 OM OM1 4324 -0.550000 15.99940
4325 OM 4325 OM OM1 4325 -0.550000 15.99940
4326 OM 4326 OM OM1 4326 -0.550000 15.99940
4327 OM 4327 OM OM1 4327 -0.550000 15.99940
4328 OM 4328 OM OM1 4328 -0.550000 15.99940
4329 OM 4329 OM OM1 4329 -0.550000 15.99940
4330 OM 4330 OM OM1 4330 -0.550000 15.99940
4331 OM 4331 OM OM1 4331 -0.550000 15.99940
4332 OM 4332 OM OM1 4332 -0.550000 15.99940
4333 OM 4333 OM OM1 4333 -0.550000 15.99940
4334 OM 4334 OM OM1 4334 -0.550000 15.99940
4335 OM 4335 OM OM1 4335 -0.550000 15.99940
4336 OM 4336 OM OM1 4336 -0.550000 15.99940
4337 OM 4337 OM OM1 4337 -0.550000 15.99940
4338 OM 4338 OM OM1 4338 -0.550000 15.99940
4339 OM 4339 OM OM1 4339 -0.550000 15.99940
4340 OM 4340 OM OM1 4340 -0.550000 15.99940
4341 OM 4341 OM OM1 4341 -0.550000 15.99940
4342 OM 4342 OM OM1 4342 -0.550000 15.99940
4343 OM 4343 OM OM1 4343 -0.550000 15.99940
4344 OM 4344 OM OM1 4344 -0.550000 15.99940
4345 OM 4345 OM OM1 4345 -0.550000 15.99940
4346 OM 4346 OM OM1 4346 -0.550000 15.99940
4347 OM 4347 OM OM1 4347 -0.550000 15.99940
4348 OM 4348 OM OM1 4348 -0.550000 15.99940
4349 OM 4349 OM OM1 4349 -0.550000 15.99940
4350 OM 4350 OM OM1 4350 -0.550000 15.99940
4351 OM 4351 OM OM1 4351 -0.550000 15.99940
4352 OM 4352 OM OM1 4352 -0.550000 15.99940
4353 OM 4353 OM OM1 4353 -0.550000 15.99940
4354 OM 4354 OM OM1 4354 -0.550000 15.99940
4355 OM 4355 OM OM1 4355 -0.550000 15.99940
4356 OM 4356 OM OM1 4356 -0.550000 15.99940
4357 OM 4357 OM OM1 4357 -0.550000 15.99940
4358 OM 4358 OM OM1 4358 -0.550000 15.99940
4359 OM 4359 OM OM1 4359 -0.550000 15.99940
4360 OM 4360 OM OM1 4360 -0.550000 15.99940
4361 OM 4361 OM OM1 4361 -0.550000 15.99940
4362 OM 4362 OM OM1 4362 -0.550000 15.99940
4363 OM 4363 OM OM1 4363 -0.550000 15.99940
4364 OM 4364 OM OM1 4364 -0.550000 15.99940
4365 OM 4365 OM OM1 4365 -0.550000 15.99940
4366 OM 4366 OM OM1 4366 -0.550000 15.99940
4367 OM 4367 OM OM1 4367 -0.550000 15.99940
4368 OM 4368 OM OM1 4368 -0.550000 15.99940
4369 OM 4369 OM OM1 4369 -0.550000 15.99940
4370 OM 4370 OM OM1 4370 -0.550000 15.99940
4371 OM 4371 OM OM1 4371 -0.550000 15.99940
4372 OM 4372 OM OM1 4372 -0.550000 15.99940
4373 OM 4373 OM OM1 4373 -0.550000 15.99940
4374 OM 4374 OM OM1 4374 -0.550000 15.99940
4375 OM 4375 OM OM1 4375 -0.550000 15.99940
4376 OM 4376 OM OM1 4376 -0.550000 15.99940
4377 OM 4377 OM OM1 4377 -0.550000 15.99940
4378 OM 4378 OM OM1 4378 -0.550000 15.99940
4379 OM 4379 OM OM1 4379 -0.550000 15.99940
4380 OM 4380 OM OM1 4380 -0.550000 15.99940
4381 OM 4381 OM OM1 4381 -0.550000 15.99940
4382 OM 4382 OM OM1 4382 -0.550000 15.99940
4383 OM 4383 OM OM1 4383 -0.550000 15.99940
4384 OM 4384 OM OM1 4384 -0.550000 15.99940
4385 OM 4385 OM OM1 4385 -0.550000 15.99940
4386 OM 4386 OM OM1 4386 -0.550000 15.99940
4387 OM 4387 OM OM1 4387 -0.550000 15.99940
4388 OM 4388 OM OM1 4388 -0.550000 15.99940
4389 OM 4389 OM OM1 4389 -0.550000 15.99940
4390 OM 4390 OM OM1 4390 -0.550000 15.99940
4391 OM 4391 OM OM1 4391 -0.550000 15.99940
4392 OM 4392 OM OM1 4392 -0.550000 15.99940
4393 OM 4393 OM OM1 4393 -0.550000 15.99940
4394 OM 4394 OM OM1 4394 -0.550000 15.99940
4395 OM 4395 OM OM1 4395 -0.550000 15.99940
4396 OM 4396 OM OM1 4396 -0.550000 15.99940
4397 OM 4397 OM OM1 4397 -0.550000 15.99940
4398 OM 4398 OM OM1 4398 -0.550000 15.99940
4399 OM 4399 OM OM1 4399 -0.550000 15.99940
4400 OM 4400 OM OM1 4400 -0.550000 15.99940
4401 OM 4401 OM OM1 4401 -0.550000 15.99940
4402 OM 4402 OM OM1 4402 -0.550000 15.99940
4403 OM 4403 OM OM1 4403 -0.550000 15.99940
4404 OM 4404 OM OM1 4404 -0.550000 15.99940
4405 OM 4405 OM OM1 4405 -0.550000 15.99940
4406 OM 4406 OM OM1 4406 -0.550000 15.99940
4407 OM 4407 OM OM1 4407 -0.550000 15.99940
4408 OM 4408 OM OM1 4408 -0.550000 15.99940
4409 OM 4409 OM OM1 4409 -0.550000 15.99940
4410 OM 4410 OM OM1 4410 -0.550000 15.99940
4411 OM 4411 OM OM1 4411 -0.550000 15.99940
4412 OM 4412 OM OM1 4412 -0.550000 15.99940
4413 OM 4413 OM OM1 4413 -0.550000 15.99940
4414 OM 4414 OM OM1 4414 -0.550000 15.99940
4415 OM 4415 OM OM1 4415 -0.550000 15.99940
4416 OM 4416 OM OM1 4416 -0.550000 15.99940
4417 OM 4417 OM OM1 4417 -0.550000 15.99940
4418 OM 4418 OM OM1 4418 -0.550000 15.99940
4419 OM 4419 OM OM1 4419 -0.550000 15.99940
4420 OM 4420 OM OM1 4420 -0.550000 15.99940
4421 OM 4421 OM OM1 4421 -0.550000 15.99940
4422 OM 4422 OM OM1 4422 -0.550000 15.99940
4423 OM 4423 OM OM1 4423 -0.550000 15.99940
4424 OM 4424 OM OM1 4424 -0.550000 15.99940
4425 OM 4425 OM OM1 4425 -0.550000 15.99940
4426 OM 4426 OM OM1 4426 -0.550000 15.99940
4427 OM 4427 OM OM1 4427 -0.550000 15.99940
4428 OM 4428 OM OM1 4428 -0.550000 15.99940
4429 OM 4429 OM OM1 4429 -0.550000 15.99940
4430 OM 4430 OM OM1 4430 -0.550000 15.99940
4431 OM 4431 OM OM1 4431 -0.550000 15.99940
4432 OM 4432 OM OM1 4432 -0.550000 15.99940
4433 OM 4433 OM OM1 4433 -0.550000 15.99940
4434 OM 4434 OM OM1 4434 -0.550000 15.99940
4435 OM 4435 OM OM1 4435 -0.550000 15.99940
4436 OM 4436 OM OM1 4436 -0.550000 15.99940
4437 OM 4437 OM OM1 4437 -0.550000 15.99940
4438 OM 4438 OM OM1 4438 -0.550000 15.99940
4439 OM 4439 OM OM1 4439 -0.550000 15.99940
4440 OM 4440 OM OM1 4440 -0.550000 15.99940
4441 OM 4441 OM OM1 4441 -0.550000 15.99940
4442 OM 4442 OM OM1 4442 -0.550000 15.99940
4443 OM 4443 OM OM1 4443 -0.550000 15.99940
4444 OM 4444 OM OM1 4444 -0.550000 15.99940
4445 OM 4445 OM OM1 4445 -0.550000 15.99940
4446 OM 4446 OM OM1 4446 -0.550000 15.99940
4447 OM 4447 OM OM1 4447 -0.550000 15.99940
4448 OM 4448 OM OM1 4448 -0.550000 15.99940
4449 OM 4449 OM OM1 4449 -0.550000 15.99940
4450 OM 4450 OM OM1 4450 -0.550000 15.99940
4451 OM 4451 OM OM1 4451 -0.550000 15.99940
4452 OM 4452 OM OM1 4452 -0.550000 15.99940
4453 OM 4453 OM OM1 4453 -0.550000 15.99940
4454 OM 4454 OM OM1 4454 -0.550000 15.99940
4455 OM 4455 OM OM1 4455 -0.550000 15.99940
4456 OM 4456 OM OM1 4456 -0.550000 15.99940
4457 OM 4457 OM OM1 4457 -0.550000 15.99940
4458 OM 4458 OM OM1 4458 -0.550000 15.99940
4459 OM 4459 OM OM1 4459 -0.550000 15.99940
4460 OM 4460 OM OM1 4460 -0.550000 15.99940
4461 OM 4461 OM OM1 4461 -0.550000 15.99940
4462 OM 4462 OM OM1 4462 -0.550000 15.99940
4463 OM 4463 OM OM1 4463 -0.550000 15.99940
4464 OM 4464 OM OM1 4464 -0.550000 15.99940
4465 OM 4465 OM OM1 4465 -0.550000 15.99940
4466 OM 4466 OM OM1 4466 -0.550000 15.99940
4467 OM 4467 OM OM1 4467 -0.550000 15.99940
4468 OM 4468 OM OM1 4468 -0.550000 15.99940
4469 OM 4469 OM OM1 4469 -0.550000 15.99940
4470 OM 4470 OM OM1 4470 -0.550000 15.99940
4471 OM 4471 OM OM1 4471 -0.550000 15.99940
4472 OM 4472 OM OM1 4472 -0.550000 15.99940
4473 OM 4473 OM OM1 4473 -0.550000 15.99940
4474 OM 4474 OM OM1 4474 -0.550000 15.99940
4475 OM 4475 OM OM1 4475 -0.550000 15.99940
4476 OM 4476 OM OM1 4476 -0.550000 15.99940
4477 OM 4477 OM OM1 4477 -0.550000 15.99940
4478 OM 4478 OM OM1 4478 -0.550000 15.99940
4479 OM 4479 OM OM1 4479 -0.550000 15.99940
4480 OM 4480 OM OM1 4480 -0.550000 15.99940
4481 OM 4481 OM OM1 4481 -0.550000 15.99940
4482 OM 4482 OM OM1 4482 -0.550000 15.99940
4483 OM 4483 OM OM1 4483 -0.550000 15.99940
4484 OM 4484 OM OM1 4484 -0.550000 15.99940
4485 OM 4485 OM OM1 4485 -0.550000 15.99940
4486 OM 4486 OM OM1 4486 -0.550000 15.99940
4487 OM 4487 OM OM1 4487 -0.550000 15.99940
4488 OM 4488 OM OM1 4488 -0.550000 15.99940
4489 OM 4489 OM OM1 4489 -0.550000 15.99940
4490 OM 4490 OM OM1 4490 -0.550000 15.99940
4491 OM 4491 OM OM1 4491 -0.550000 15.99940
4492 OM 4492 OM OM1 4492 -0.550000 15.99940
4493 OM 4493 OM OM1 4493 -0.550000 15.99940
4494 OM 4494 OM OM1 4494 -0.550000 15.99940
4495 OM 4495 OM OM1 4495 -0.550000 15.99940
4496 OM 4496 OM OM1 4496 -0.550000 15.99940
4497 OM 4497 OM OM1 4497 -0.550000 15.99940
4498 OM 4498 OM OM1 4498 -0.550000 15.99940
4499 OM 4499 OM OM1 4499 -0.550000 15.99940
4500 OM 4500 OM OM1 4500 -0.550000 15.99940
4501 OM 4501 OM OM1 4501 -0.550000 15.99940
4502 OM 4502 OM OM1 4502 -0.550000 15.99940
4503 OM 4503 OM OM1 4503 -0.550000 15.99940
4504 OM 4504 OM OM1 4504 -0.550000 15.99940
4505 OM 4505 OM OM1 4505 -0.550000 15.99940
4506 OM 4506 OM OM1 4506 -0.550000 15.99940
4507 OM 4507 OM OM1 4507 -0.550000 15.99940
4508 OM 4508 OM OM1 4508 -0.550000 15.99940
4509 OM 4509 OM OM1 4509 -0.550000 15.99940
4510 OM 4510 OM OM1 4510 -0.550000 15.99940
4511 OM 4511 OM OM1 4511 -0.550000 15.99940
4512 OM 4512 OM OM1 4512 -0.550000 15.99940
4513 OM 4513 OM OM1 4513 -0.550000 15.99940
4514 OM 4514 OM OM1 4514 -0.550000 15.99940
4515 OM 4515 OM OM1 4515 -0.550000 15.99940
4516 OM 4516 OM OM1 4516 -0.550000 15.99940
4517 OM 4517 OM OM1 4517 -0.550000 15.99940
4518 OM 4518 OM OM1 4518 -0.550000 15.99940
4519 OM 4519 OM OM1 4519 -0.550000 15.99940
4520 OM 4520 OM OM1 4520 -0.550000 15.99940
4521 OM 4521 OM OM1 4521 -0.550000 15.99940
4522 OM 4522 OM OM1 4522 -0.550000 15.99940
4523 OM 4523 OM OM1 4523 -0.550000 15.99940
4524 OM 4524 OM OM1 4524 -0.550000 15.99940
4525 OM 4525 OM OM1 4525 -0.550000 15.99940
4526 OM 4526 OM OM1 4526 -0.550000 15.99940
4527 OM 4527 OM OM1 4527 -0.550000 15.99940
4528 OM 4528 OM OM1 4528 -0.550000 15.99940
4529 OM 4529 OM OM1 4529 -0.550000 15.99940
4530 OM 4530 OM OM1 4530 -0.550000 15.99940
4531 OM 4531 OM OM1 4531 -0.550000 15.99940
4532 OM 4532 OM OM1 4532 -0.550000 15.99940
4533 OM 4533 OM OM1 4533 -0.550000 15.99940
4534 OM 4534 OM OM1 4534 -0.550000 15.99940
4535 OM 4535 OM OM1 4535 -0.550000 15.99940
4536 OM 4536 OM OM1 4536 -0.550000 15.99940
4537 OM 4537 OM OM1 4537 -0.550000 15.99940
4538 OM 4538 OM OM1 4538 -0.550000 15.99940
4539 OM 4539 OM OM1 4539 -0.550000 15.99940
4540 OM 4540 OM OM1 4540 -0.550000 15.99940
4541 OM 4541 OM OM1 4541 -0.550000 15.99940
4542 OM 4542 OM OM1 4542 -0.550000 15.99940
4543 OM 4543 OM OM1 4543 -0.550000 15.99940
4544 OM 4544 OM OM1 4544 -0.550000 15.99940
4545 OM 4545 OM OM1 4545 -0.550000 15.99940
4546 OM 4546 OM OM1 4546 -0.550000 15.99940
4547 OM 4547 OM OM1 4547 -0.550000 15.99940
4548 OM 4548 OM OM1 4548 -0.550000 15.99940
4549 OM 4549 OM OM1 4549 -0.550000 15.99940
4550 OM 4550 OM OM1 4550 -0.550000 15.99940
4551 OM 4551 OM OM1 4551 -0.550000 15.99940
4552 OM 4552 OM OM1 4552 -0.550000 15.99940
4553 OM 4553 OM OM1 4553 -0.550000 15.99940
4554 OM 4554 OM OM1 4554 -0.550000 15.99940
4555 OM 4555 OM OM1 4555 -0.550000 15.99940
4556 OM 4556 OM OM1 4556 -0.550000 15.99940
4557 OM 4557 OM OM1 4557 -0.550000 15.99940
4558 OM 4558 OM OM1 4558 -0.550000 15.99940
4559 OM 4559 OM OM1 4559 -0.550000 15.99940
4560 OM 4560 OM OM1 4560 -0.550000 15.99940
4561 OM 4561 OM OM1 4561 -0.550000 15.99940
4562 OM 4562 OM OM1 4562 -0.550000 15.99940
4563 OM 4563 OM OM1 4563 -0.550000 15.99940
4564 OM 4564 OM OM1 4564 -0.550000 15.99940
4565 OM 4565 OM OM1 4565 -0.550000 15.99940
4566 OM 4566 OM OM1 4566 -0.550000 15.99940
4567 OM 4567 OM OM1 4567 -0.550000 15.99940
4568 OM 4568 OM OM1 4568 -0.550000 15.99940
4569 OM 4569 OM OM1 4569 -0.550000 15.99940
4570 OM 4570 OM OM1 4570 -0.550000 15.99940
4571 OM 4571 OM OM1 4571 -0.550000 15.99940
4572 OM 4572 OM OM1 4572 -0.550000 15.99940
4573 OM 4573 OM OM1 4573 -0.550000 15.99940
4574 OM 4574 OM OM1 4574 -0.550000 15.99940
4575 OM 4575 OM OM1 4575 -0.550000 15.99940
4576 OM 4576 OM OM1 4576 -0.550000 15.99940
4577 OM 4577 OM OM1 4577 -0.550000 15.99940
4578 OM 4578 OM OM1 4578 -0.550000 15.99940
4579 OM 4579 OM OM1 4579 -0.550000 15.99940
4580 OM 4580 OM OM1 4580 -0.550000 15.99940
4581 OM 4581 OM OM1 4581 -0.550000 15.99940
4582 OM 4582 OM OM1 4582 -0.550000 15.99940
4583 OM 4583 OM OM1 4583 -0.550000 15.99940
4584 OM 4584 OM OM1 4584 -0.550000 15.99940
4585 OM 4585 OM OM1 4585 -0.550000 15.99940
4586 OM 4586 OM OM1 4586 -0.550000 15.99940
4587 OM 4587 OM OM1 4587 -0.550000 15.99940
4588 OM 4588 OM OM1 4588 -0.550000 15.99940
4589 OM 4589 OM OM1 4589 -0.550000 15.99940
4590 OM 4590 OM OM1 4590 -0.550000 15.99940
4591 OM 4591 OM OM1 4591 -0.550000 15.99940
4592 OM 4592 OM OM1 4592 -0.550000 15.99940
4593 OM 4593 OM OM1 4593 -0.550000 15.99940
4594 OM 4594 OM OM1 4594 -0.550000 15.99940
4595 OM 4595 OM OM1 4595 -0.550000 15.99940
4596 OM 4596 OM OM1 4596 -0.550000 15.99940
4597 OM 4597 OM OM1 4597 -0.550000 15.99940
4598 OM 4598 OM OM1 4598 -0.550000 15.99940
4599 OM 4599 OM OM1 4599 -0.550000 15.99940
4600 OM 4600 OM OM1 4600 -0.550000 15.99940
4601 OM 4601 OM OM1 4601 -0.550000 15.99940
4602 OM 4602 OM OM1 4602 -0.550000 15.99940
4603 OM 4603 OM OM1 4603 -0.550000 15.99940
4604 OM 4604 OM OM1 4604 -0.550000 15.99940
4605 OM 4605 OM OM1 4605 -0.550000 15.99940
4606 OM 4606 OM OM1 4606 -0.550000 15.99940
4607 OM 4607 OM OM1 4607 -0.550000 15.99940
4608 OM 4608 OM OM1 4608 -0.550000 15.99940
4609 OM 4609 OM OM1 4609 -0.550000 15.99940
4610 OM 4610 OM OM1 4610 -0.550000 15.99940
4611 OM 4611 OM OM1 4611 -0.550000 15.99940
4612 OM 4612 OM OM1 4612 -0.550000 15.99940
4613 OM 4613 OM OM1 4613 -0.550000 15.99940
4614 OM 4614 OM OM1 4614 -0.550000 15.99940
4615 OM 4615 OM OM1 4615 -0.550000 15.99940
4616 OM 4616 OM OM1 4616 -0.550000 15.99940
4617 OM 4617 OM OM1 4617 -0.550000 15.99940
4618 OM 4618 OM OM1 4618 -0.550000 15.99940
4619 OM 4619 OM OM1 4619 -0.550000 15.99940
4620 OM 4620 OM OM1 4620 -0.550000 15.99940
4621 OM 4621 OM OM1 4621 -0.550000 15.99940
4622 OM 4622 OM OM1 4622 -0.550000 15.99940
4623 OM 4623 OM OM1 4623 -0.550000 15.99940
4624 OM 4624 OM OM1 4624 -0.550000 15.99940
4625 OM 4625 OM OM1 4625 -0.550000 15.99940
4626 OM 4626 OM OM1 4626 -0.550000 15.99940
4627 OM 4627 OM OM1 4627 -0.550000 15.99940
4628 OM 4628 OM OM1 4628 -0.550000 15.99940
4629 OM 4629 OM OM1 4629 -0.550000 15.99940
4630 OM 4630 OM OM1 4630 -0.550000 15.99940
4631 OM 4631 OM OM1 4631 -0.550000 15.99940
4632 OM 4632 OM OM1 4632 -0.550000 15.99940
4633 OM 4633 OM OM1 4633 -0.550000 15.99940
4634 OM 4634 OM OM1 4634 -0.550000 15.99940
4635 OM 4635 OM OM1 4635 -0.550000 15.99940
4636 OM 4636 OM OM1 4636 -0.550000 15.99940
4637 OM 4637 OM OM1 4637 -0.550000 15.99940
4638 OM 4638 OM OM1 4638 -0.550000 15.99940
4639 OM 4639 OM OM1 4639 -0.550000 15.99940
4640 OM 4640 OM OM1 4640 -0.550000 15.99940
4641 OM 4641 OM OM1 4641 -0.550000 15.99940
4642 OM 4642 OM OM1 4642 -0.550000 15.99940
4643 OM 4643 OM OM1 4643 -0.550000 15.99940
4644 OM 4644 OM OM1 4644 -0.550000 15.99940
4645 OM 4645 OM OM1 4645 -0.550000 15.99940
4646 OM 4646 OM OM1 4646 -0.550000 15.99940
4647 OM 4647 OM OM1 4647 -0.550000 15.99940
4648 OM 4648 OM OM1 4648 -0.550000 15.99940
4649 OM 4649 OM OM1 4649 -0.550000 15.99940
4650 OM 4650 OM OM1 4650 -0.550000 15.99940
4651 OM 4651 OM OM1 4651 -0.550000 15.99940
4652 OM 4652 OM OM1 4652 -0.550000 15.99940
4653 OM 4653 OM OM1 4653 -0.550000 15.99940
4654 OM 4654 OM OM1 4654 -0.550000 15.99940
4655 OM 4655 OM OM1 4655 -0.550000 15.99940
4656 OM 4656 OM OM1 4656 -0.550000 15.99940
4657 OM 4657 OM OM1 4657 -0.550000 15.99940
4658 OM 4658 OM OM1 4658 -0.550000 15.99940
4659 OM 4659 OM OM1 4659 -0.550000 15.99940
4660 OM 4660 OM OM1 4660 -0.550000 15.99940
4661 OM 4661 OM OM1 4661 -0.550000 15.99940
4662 OM 4662 OM OM1 4662 -0.550000 15.99940
4663 OM 4663 OM OM1 4663 -0.550000 15.99940
4664 OM 4664 OM OM1 4664 -0.550000 15.99940
4665 OM 4665 OM OM1 4665 -0.550000 15.99940
4666 OM 4666 OM OM1 4666 -0.550000 15.99940
4667 OM 4667 OM OM1 4667 -0.550000 15.99940
4668 OM 4668 OM OM1 4668 -0.550000 15.99940
4669 OM 4669 OM OM1 4669 -0.550000 15.99940
4670 OM 4670 OM OM1 4670 -0.550000 15.99940
4671 OM 4671 OM OM1 4671 -0.550000 15.99940
4672 OM 4672 OM OM1 4672 -0.550000 15.99940
4673 OM 4673 OM OM1 4673 -0.550000 15.99940
4674 OM 4674 OM OM1 4674 -0.550000 15.99940
4675 OM 4675 OM OM1 4675 -0.550000 15.99940
4676 OM 4676 OM OM1 4676 -0.550000 15.99940
4677 OM 4677 OM OM1 4677 -0.550000 15.99940
4678 OM 4678 OM OM1 4678 -0.550000 15.99940
4679 OM 4679 OM OM1 4679 -0.550000 15.99940
4680 OM 4680 OM OM1 4680 -0.550000 15.99940
4681 OM 4681 OM OM1 4681 -0.550000 15.99940
4682 OM 4682 OM OM1 4682 -0.550000 15.99940
4683 OM 4683 OM OM1 4683 -0.550000 15.99940
4684 OM 4684 OM OM1 4684 -0.550000 15.99940
4685 OM 4685 OM OM1 4685 -0.550000 15.99940
4686 OM 4686 OM OM1 4686 -0.550000 15.99940
4687 OM 4687 OM OM1 4687 -0.550000 15.99940
4688 OM 4688 OM OM1 4688 -0.550000 15.99940
4689 OM 4689 OM OM1 4689 -0.550000 15.99940
4690 OM 4690 OM OM1 4690 -0.550000 15.99940
4691 OM 4691 OM OM1 4691 -0.550000 15.99940
4692 OM 4692 OM OM1 4692 -0.550000 15.99940
4693 OM 4693 OM OM1 4693 -0.550000 15.99940
4694 OM 4694 OM OM1 4694 -0.550000 15.99940
4695 OM 4695 OM OM1 4695 -0.550000 15.99940
4696 OM 4696 OM OM1 4696 -0.550000 15.99940
4697 OM 4697 OM OM1 4697 -0.550000 15.99940
4698 OM 4698 OM OM1 4698 -0.550000 15.99940
4699 OM 4699 OM OM1 4699 -0.550000 15.99940
4700 OM 4700 OM OM1 4700 -0.550000 15.99940
4701 OM 4701 OM OM1 4701 -0.550000 15.99940
4702 OM 4702 OM OM1 4702 -0.550000 15.99940
4703 OM 4703 OM OM1 4703 -0.550000 15.99940
4704 OM 4704 OM OM1 4704 -0.550000 15.99940
4705 OM 4705 OM OM1 4705 -0.550000 15.99940
4706 OM 4706 OM OM1 4706 -0.550000 15.99940
4707 OM 4707 OM OM1 4707 -0.550000 15.99940
4708 OM 4708 OM OM1 4708 -0.550000 15.99940
4709 OM 4709 OM OM1 4709 -0.550000 15.99940
4710 OM 4710 OM OM1 4710 -0.550000 15.99940
4711 OM 4711 OM OM1 4711 -0.550000 15.99940
4712 OM 4712 OM OM1 4712 -0.550000 15.99940
4713 OM 4713 OM OM1 4713 -0.550000 15.99940
4714 OM 4714 OM OM1 4714 -0.550000 15.99940
4715 OM 4715 OM OM1 4715 -0.550000 15.99940
4716 OM 4716 OM OM1 4716 -0.550000 15.99940
4717 OM 4717 OM OM1 4717 -0.550000 15.99940
4718 OM 4718 OM OM1 4718 -0.550000 15.99940
4719 OM 4719 OM OM1 4719 -0.550000 15.99940
4720 OM 4720 OM OM1 4720 -0.550000 15.99940
4721 OM 4721 OM OM1 4721 -0.550000 15.99940
4722 OM 4722 OM OM1 4722 -0.550000 15.99940
4723 OM 4723 OM OM1 4723 -0.550000 15.99940
4724 OM 4724 OM OM1 4724 -0.550000 15.99940
4725 OM 4725 OM OM1 4725 -0.550000 15.99940
4726 OM 4726 OM OM1 4726 -0.550000 15.99940
4727 OM 4727 OM OM1 4727 -0.550000 15.99940
4728 OM 4728 OM OM1 4728 -0.550000 15.99940
4729 OM 4729 OM OM1 4729 -0.550000 15.99940
4730 OM 4730 OM OM1 4730 -0.550000 15.99940
4731 OM 4731 OM OM1 4731 -0.550000 15.99940
4732 OM 4732 OM OM1 4732 -0.550000 15.99940
4733 OM 4733 OM OM1 4733 -0.550000 15.99940
4734 OM 4734 OM OM1 4734 -0.550000 15.99940
4735 OM 4735 OM OM1 4735 -0.550000 15.99940
4736 OM 4736 OM OM1 4736 -0.550000 15.99940
4737 OM 4737 OM OM1 4737 -0.550000 15.99940
4738 OM 4738 OM OM1 4738 -0.550000 15.99940
4739 OM 4739 OM OM1 4739 -0.550000 15.99940
4740 OM 4740 OM OM1 4740 -0.550000 15.99940
4741 OM 4741 OM OM1 4741 -0.550000 15.99940
4742 OM 4742 OM OM1 4742 -0.550000 15.99940
4743 OM 4743 OM OM1 4743 -0.550000 15.99940
4744 OM 4744 OM OM1 4744 -0.550000 15.99940
4745 OM 4745 OM OM1 4745 -0.550000 15.99940
4746 OM 4746 OM OM1 4746 -0.550000 15.99940
4747 OM 4747 OM OM1 4747 -0.550000 15.99940
4748 OM 4748 OM OM1 4748 -0.550000 15.99940
4749 OM 4749 OM OM1 4749 -0.550000 15.99940
4750 OM 4750 OM OM1 4750 -0.550000 15.99940
4751 OM 4751 OM OM1 4751 -0.550000 15.99940
4752 OM 4752 OM OM1 4752 -0.550000 15.99940
4753 OM 4753 OM OM1 4753 -0.550000 15.99940
4754 OM 4754 OM OM1 4754 -0.550000 15.99940
4755 OM 4755 OM OM1 4755 -0.550000 15.99940
4756 OM 4756 OM OM1 4756 -0.550000 15.99940
4757 OM 4757 OM OM1 4757 -0.550000 15.99940
4758 OM 4758 OM OM1 4758 -0.550000 15.99940
4759 OM 4759 OM OM1 4759 -0.550000 15.99940
4760 OM 4760 OM OM1 4760 -0.550000 15.99940
4761 OM 4761 OM OM1 4761 -0.550000 15.99940
4762 OM 4762 OM OM1 4762 -0.550000 15.99940
4763 OM 4763 OM OM1 4763 -0.550000 15.99940
4764 OM 4764 OM OM1 4764 -0.550000 15.99940
4765 OM 4765 OM OM1 4765 -0.550000 15.99940
4766 OM 4766 OM OM1 4766 -0.550000 15.99940
4767 OM 4767 OM OM1 4767 -0.550000 15.99940
4768 OM 4768 OM OM1 4768 -0.550000 15.99940
4769 OM 4769 OM OM1 4769 -0.550000 15.99940
4770 OM 4770 OM OM1 4770 -0.550000 15.99940
4771 OM 4771 OM OM1 4771 -0.550000 15.99940
4772 OM 4772 OM OM1 4772 -0.550000 15.99940
4773 OM 4773 OM OM1 4773 -0.550000 15.99940
4774 OM 4774 OM OM1 4774 -0.550000 15.99940
4775 OM 4775 OM OM1 4775 -0.550000 15.99940
4776 OM 4776 OM OM1 4776 -0.550000 15.99940
4777 OM 4777 OM OM1 4777 -0.550000 15.99940
4778 OM 4778 OM OM1 4778 -0.550000 15.99940
4779 OM 4779 OM OM1 4779 -0.550000 15.99940
4780 OM 4780 OM OM1 4780 -0.550000 15.99940
4781 OM 4781 OM OM1 4781 -0.550000 15.99940
4782 OM 4782 OM OM1 4782 -0.550000 15.99940
4783 OM 4783 OM OM1 4783 -0.550000 15.99940
4784 OM 4784 OM OM1 4784 -0.550000 15.99940
4785 OM 4785 OM OM1 4785 -0.550000 15.99940
4786 OM 4786 OM OM1 4786 -0.550000 15.99940
4787 OM 4787 OM OM1 4787 -0.550000 15.99940
4788 OM 4788 OM OM1 4788 -0.550000 15.99940
4789 OM 4789 OM OM1 4789 -0.550000 15.99940
4790 OM 4790 OM OM1 4790 -0.550000 15.99940
4791 OM 4791 OM OM1 4791 -0.550000 15.99940
4792 OM 4792 OM OM1 4792 -0.550000 15.99940
4793 OM 4793 OM OM1 4793 -0.550000 15.99940
4794 OM 4794 OM OM1 4794 -0.550000 15.99940
4795 OM 4795 OM OM1 4795 -0.550000 15.99940
4796 OM 4796 OM OM1 4796 -0.550000 15.99940
4797 OM 4797 OM OM1 4797 -0.550000 15.99940
4798 OM 4798 OM OM1 4798 -0.550000 15.99940
4799 OM 4799 OM OM1 4799 -0.550000 15.99940
4800 OM 4800 OM OM1 4800 -0.550000 15.99940
4801 OM 4801 OM OM1 4801 -0.550000 15.99940
4802 OM 4802 OM OM1 4802 -0.550000 15.99940
4803 OM 4803 OM OM1 4803 -0.550000 15.99940
4804 OM 4804 OM OM1 4804 -0.550000 15.99940
4805 OM 4805 OM OM1 4805 -0.550000 15.99940
4806 OM 4806 OM OM1 4806 -0.550000 15.99940
4807 OM 4807 OM OM1 4807 -0.550000 15.99940
4808 OM 4808 OM OM1 4808 -0.550000 15.99940
4809 OM 4809 OM OM1 4809 -0.550000 15.99940
4810 OM 4810 OM OM1 4810 -0.550000 15.99940
4811 OM 4811 OM OM1 4811 -0.550000 15.99940
4812 OM 4812 OM OM1 4812 -0.550000 15.99940
4813 OM 4813 OM OM1 4813 -0.550000 15.99940
4814 OM 4814 OM OM1 4814 -0.550000 15.99940
4815 OM 4815 OM OM1 4815 -0.550000 15.99940
4816 OM 4816 OM OM1 4816 -0.550000 15.99940
4817 OM 4817 OM OM1 4817 -0.550000 15.99940
4818 OM 4818 OM OM1 4818 -0.550000 15.99940
4819 OM 4819 OM OM1 4819 -0.550000 15.99940
4820 OM 4820 OM OM1 4820 -0.550000 15.99940
4821 OM 4821 OM OM1 4821 -0.550000 15.99940
4822 OM 4822 OM OM1 4822 -0.550000 15.99940
4823 OM 4823 OM OM1 4823 -0.550000 15.99940
4824 OM 4824 OM OM1 4824 -0.550000 15.99940
4825 OM 4825 OM OM1 4825 -0.550000 15.99940
4826 OM 4826 OM OM1 4826 -0.550000 15.99940
4827 OM 4827 OM OM1 4827 -0.550000 15.99940
4828 OM 4828 OM OM1 4828 -0.550000 15.99940
4829 OM 4829 OM OM1 4829 -0.550000 15.99940
4830 OM 4830 OM OM1 4830 -0.550000 15.99940
4831 OM 4831 OM OM1 4831 -0.550000 15.99940
4832 OM 4832 OM OM1 4832 -0.550000 15.99940
4833 OM 4833 OM OM1 4833 -0.550000 15.99940
4834 OM 4834 OM OM1 4834 -0.550000 15.99940
4835 OM 4835 OM OM1 4835 -0.550000 15.99940
4836 OM 4836 OM OM1 4836 -0.550000 15.99940
4837 OM 4837 OM OM1 4837 -0.550000 15.99940
4838 OM 4838 OM OM1 4838 -0.550000 15.99940
4839 OM 4839 OM OM1 4839 -0.550000 15.99940
4840 OM 4840 OM OM1 4840 -0.550000 15.99940
4841 OM 4841 OM OM1 4841 -0.550000 15.99940
4842 OM 4842 OM OM1 4842 -0.550000 15.99940
4843 OM 4843 OM OM1 4843 -0.550000 15.99940
4844 OM 4844 OM OM1 4844 -0.550000 15.99940
4845 OM 4845 OM OM1 4845 -0.550000 15.99940
4846 OM 4846 OM OM1 4846 -0.550000 15.99940
4847 OM 4847 OM OM1 4847 -0.550000 15.99940
4848 OM 4848 OM OM1 4848 -0.550000 15.99940
4849 OM 4849 OM OM1 4849 -0.550000 15.99940
4850 OM 4850 OM OM1 4850 -0.550000 15.99940
4851 OM 4851 OM OM1 4851 -0.550000 15.99940
4852 OM 4852 OM OM1 4852 -0.550000 15.99940
4853 OM 4853 OM OM1 4853 -0.550000 15.99940
4854 OM 4854 OM OM1 4854 -0.550000 15.99940
4855 OM 4855 OM OM1 4855 -0.550000 15.99940
4856 OM 4856 OM OM1 4856 -0.550000 15.99940
4857 OM 4857 OM OM1 4857 -0.550000 15.99940
4858 OM 4858 OM OM1 4858 -0.550000 15.99940
4859 OM 4859 OM OM1 4859 -0.550000 15.99940
4860 OM 4860 OM OM1 4860 -0.550000 15.99940
4861 OM 4861 OM OM1 4861 -0.550000 15.99940
4862 OM 4862 OM OM1 4862 -0.550000 15.99940
4863 OM 4863 OM OM1 4863 -0.550000 15.99940
4864 OM 4864 OM OM1 4864 -0.550000 15.99940
4865 OM 4865 OM OM1 4865 -0.550000 15.99940
4866 OM 4866 OM OM1 4866 -0.550000 15.99940
4867 OM 4867 OM OM1 4867 -0.550000 15.99940
4868 OM 4868 OM OM1 4868 -0.550000 15.99940
4869 OM 4869 OM OM1 4869 -0.550000 15.99940
4870 OM 4870 OM OM1 4870 -0.550000 15.99940
4871 OM 4871 OM OM1 4871 -0.550000 15.99940
4872 OM 4872 OM OM1 4872 -0.550000 15.99940
4873 OM 4873 OM OM1 4873 -0.550000 15.99940
4874 OM 4874 OM OM1 4874 -0.550000 15.99940
4875 OM 4875 OM OM1 4875 -0.550000 15.99940
4876 OM 4876 OM OM1 4876 -0.550000 15.99940
4877 OM 4877 OM OM1 4877 -0.550000 15.99940
4878 OM 4878 OM OM1 4878 -0.550000 15.99940
4879 OM 4879 OM OM1 4879 -0.550000 15.99940
4880 OM 4880 OM OM1 4880 -0.550000 15.99940
4881 OM 4881 OM OM1 4881 -0.550000 15.99940
4882 OM 4882 OM OM1 4882 -0.550000 15.99940
4883 OM 4883 OM OM1 4883 -0.550000 15.99940
4884 OM 4884 OM OM1 4884 -0.550000 15.99940
4885 OM 4885 OM OM1 4885 -0.550000 15.99940
4886 OM 4886 OM OM1 4886 -0.550000 15.99940
4887 OM 4887 OM OM1 4887 -0.550000 15.99940
4888 OM 4888 OM OM1 4888 -0.550000 15.99940
4889 OM 4889 OM OM1 4889 -0.550000 15.99940
4890 OM 4890 OM OM1 4890 -0.550000 15.99940
4891 OM 4891 OM OM1 4891 -0.550000 15.99940
4892 OM 4892 OM OM1 4892 -0.550000 15.99940
4893 OM 4893 OM OM1 4893 -0.550000 15.99940
4894 OM 4894 OM OM1 4894 -0.550000 15.99940
4895 OM 4895 OM OM1 4895 -0.550000 15.99940
4896 OM 4896 OM OM1 4896 -0.550000 15.99940
4897 OM 4897 OM OM1 4897 -0.550000 15.99940
4898 OM 4898 OM OM1 4898 -0.550000 15.99940
4899 OM 4899 OM OM1 4899 -0.550000 15.99940
4900 OM 4900 OM OM1 4900 -0.550000 15.99940
4901 OM 4901 OM OM1 4901 -0.550000 15.99940
4902 OM 4902 OM OM1 4902 -0.550000 15.99940
4903 OM 4903 OM OM1 4903 -0.550000 15.99940
4904 OM 4904 OM OM1 4904 -0.550000 15.99940
4905 OM 4905 OM OM1 4905 -0.550000 15.99940
4906 OM 4906 OM OM1 4906 -0.550000 15.99940
4907 OM 4907 OM OM1 4907 -0.550000 15.99940
4908 OM 4908 OM OM1 4908 -0.550000 15.99940
4909 OM 4909 OM OM1 4909 -0.550000 15.99940
4910 OM 4910 OM OM1 4910 -0.550000 15.99940
4911 OM 4911 OM OM1 4911 -0.550000 15.99940
4912 OM 4912 OM OM1 4912 -0.550000 15.99940
4913 OM 4913 OM OM1 4913 -0.550000 15.99940
4914 OM 4914 OM OM1 4914 -0.550000 15.99940
4915 OM 4915 OM OM1 4915 -0.550000 15.99940
4916 OM 4916 OM OM1 4916 -0.550000 15.99940
4917 OM 4917 OM OM1 4917 -0.550000 15.99940
4918 OM 4918 OM OM1 4918 -0.550000 15.99940
4919 OM 4919 OM OM1 4919 -0.550000 15.99940
4920 OM 4920 OM OM1 4920 -0.550000 15.99940
4921 OM 4921 OM OM1 4921 -0.550000 15.99940
4922 OM 4922 OM OM1 4922 -0.550000 15.99940
4923 OM 4923 OM OM1 4923 -0.550000 15.99940
4924 OM 4924 OM OM1 4924 -0.550000 15.99940
4925 OM 4925 OM OM1 4925 -0.550000 15.99940
4926 OM 4926 OM OM1 4926 -0.550000 15.99940
4927 OM 4927 OM OM1 4927 -0.550000 15.99940
4928 OM 4928 OM OM1 4928 -0.550000 15.99940
4929 OM 4929 OM OM1 4929 -0.550000 15.99940
4930 OM 4930 OM OM1 4930 -0.550000 15.99940
4931 OM 4931 OM OM1 4931 -0.550000 15.99940
4932 OM 4932 OM OM1 4932 -0.550000 15.99940
4933 OM 4933 OM OM1 4933 -0.550000 15.99940
4934 OM 4934 OM OM1 4934 -0.550000 15.99940
4935 OM 4935 OM OM1 4935 -0.550000 15.99940
4936 OM 4936 OM OM1 4936 -0.550000 15.99940
4937 OM 4937 OM OM1 4937 -0.550000 15.99940
4938 OM 4938 OM OM1 4938 -0.550000 15.99940
4939 OM 4939 OM OM1 4939 -0.550000 15.99940
4940 OM 4940 OM OM1 4940 -0.550000 15.99940
4941 OM 4941 OM OM1 4941 -0.550000 15.99940
4942 OM 4942 OM OM1 4942 -0.550000 15.99940
4943 OM 4943 OM OM1 4943 -0.550000 15.99940
4944 OM 4944 OM OM1 4944 -0.550000 15.99940
4945 OM 4945 OM OM1 4945 -0.550000 15.99940
4946 OM 4946 OM OM1 4946 -0.550000 15.99940
4947 OM 4947 OM OM1 4947 -0.550000 15.99940
4948 OM 4948 OM OM1 4948 -0.550000 15.99940
4949 OM 4949 OM OM1 4949 -0.550000 15.99940
4950 OM 4950 OM OM1 4950 -0.550000 15.99940
4951 OM 4951 OM OM1 4951 -0.550000 15.99940
4952 OM 4952 OM OM1 4952 -0.550000 15.99940
4953 OM 4953 OM OM1 4953 -0.550000 15.99940
4954 OM 4954 OM OM1 4954 -0.550000 15.99940
4955 OM 4955 OM OM1 4955 -0.550000 15.99940
4956 OM 4956 OM OM1 4956 -0.550000 15.99940
4957 OM 4957 OM OM1 4957 -0.550000 15.99940
4958 OM 4958 OM OM1 4958 -0.550000 15.99940
4959 OM 4959 OM OM1 4959 -0.550000 15.99940
4960 OM 4960 OM OM1 4960 -0.550000 15.99940
4961 OM 4961 OM OM1 4961 -0.550000 15.99940
4962 OM 4962 OM OM1 4962 -0.550000 15.99940
4963 OM 4963 OM OM1 4963 -0.550000 15.99940
4964 OM 4964 OM OM1 4964 -0.550000 15.99940
4965 OM 4965 OM OM1 4965 -0.550000 15.99940
4966 OM 4966 OM OM1 4966 -0.550000 15.99940
4967 OM 4967 OM OM1 4967 -0.550000 15.99940
4968 OM 4968 OM OM1 4968 -0.550000 15.99940
4969 OM 4969 OM OM1 4969 -0.550000 15.99940
4970 OM 4970 OM OM1 4970 -0.550000 15.99940
4971 OM 4971 OM OM1 4971 -0.550000 15.99940
4972 OM 4972 OM OM1 4972 -0.550000 15.99940
4973 OM 4973 OM OM1 4973 -0.550000 15.99940
4974 OM 4974 OM OM1 4974 -0.550000 15.99940
4975 OM 4975 OM OM1 4975 -0.550000 15.99940
4976 OM 4976 OM OM1 4976 -0.550000 15.99940
4977 OM 4977 OM OM1 4977 -0.550000 15.99940
4978 OM 4978 OM OM1 4978 -0.550000 15.99940
4979 OM 4979 OM OM1 4979 -0.550000 15.99940
4980 OM 4980 OM OM1 4980 -0.550000 15.99940
4981 OM 4981 OM OM1 4981 -0.550000 15.99940
4982 OM 4982 OM OM1 4982 -0.550000 15.99940
4983 OM 4983 OM OM1 4983 -0.550000 15.99940
4984 OM 4984 OM OM1 4984 -0.550000 15.99940
4985 OM 4985 OM OM1 4985 -0.550000 15.99940
4986 OM 4986 OM OM1 4986 -0.550000 15.99940
4987 OM 4987 OM OM1 4987 -0.550000 15.99940
4988 OM 4988 OM OM1 4988 -0.550000 15.99940
4989 OM 4989 OM OM1 4989 -0.550000 15.99940
4990 OM 4990 OM OM1 4990 -0.550000 15.99940
4991 OM 4991 OM OM1 4991 -0.550000 15.99940
4992 OM 4992 OM OM1 4992 -0.550000 15.99940
4993 OM 4993 OM OM1 4993 -0.550000 15.99940
4994 OM 4994 OM OM1 4994 -0.550000 15.99940
4995 OM 4995 OM OM1 4995 -0.550000 15.99940
4996 OM 4996 OM OM1 4996 -0.550000 15.99940
4997 OM 4997 OM OM1 4997 -0.550000 15.99940
4998 OM 4998 OM OM1 4998 -0.550000 15.99940
4999 OM 4999 OM OM1 4999 -0.550000 15.99940
5000 OM 5000 OM OM1 5000 -0.550000 15.99940
5001 OM 5001 OM OM1 5001 -0.550000 15.99940
5002 OM 5002 OM OM1 5002 -0.550000 15.99940
5003 OM 5003 OM OM1 5003 -0.550000 15.99940
5004 OM 5004 OM OM1 5004 -0.550000 15.99940
5005 OM 5005 OM OM1 5005 -0.550000 15.99940
5006 OM 5006 OM OM1 5006 -0.550000 15.99940
5007 OM 5007 OM OM1 5007 -0.550000 15.99940
5008 OM 5008 OM OM1 5008 -0.550000 15.99940
5009 OM 5009 OM OM1 5009 -0.550000 15.99940
5010 OM 5010 OM OM1 5010 -0.550000 15.99940
5011 OM 5011 OM OM1 5011 -0.550000 15.99940
5012 OM 5012 OM OM1 5012 -0.550000 15.99940
5013 OM 5013 OM OM1 5013 -0.550000 15.99940
5014 OM 5014 OM OM1 5014 -0.550000 15.99940
5015 OM 5015 OM OM1 5015 -0.550000 15.99940
5016 OM 5016 OM OM1 5016 -0.550000 15.99940
5017 OM 5017 OM OM1 5017 -0.550000 15.99940
5018 OM 5018 OM OM1 5018 -0.550000 15.99940
5019 OM 5019 OM OM1 5019 -0.550000 15.99940
5020 OM 5020 OM OM1 5020 -0.550000 15.99940
5021 OM 5021 OM OM1 5021 -0.550000 15.99940
5022 OM 5022 OM OM1 5022 -0.550000 15.99940
5023 OM 5023 OM OM1 5023 -0.550000 15.99940
5024 OM 5024 OM OM1 5024 -0.550000 15.99940
5025 OM 5025 OM OM1 5025 -0.550000 15.99940
5026 OM 5026 OM OM1 5026 -0.550000 15.99940
5027 OM 5027 OM OM1 5027 -0.550000 15.99940
5028 OM 5028 OM OM1 5028 -0.550000 15.99940
5029 OM 5029 OM OM1 5029 -0.550000 15.99940
5030 OM 5030 OM OM1 5030 -0.550000 15.99940
5031 OM 5031 OM OM1 5031 -0.550000 15.99940
5032 OM 5032 OM OM1 5032 -0.550000 15.99940
5033 OM 5033 OM OM1 5033 -0.550000 15.99940
5034 OM 5034 OM OM1 5034 -0.550000 15.99940
5035 OM 5035 OM OM1 5035 -0.550000 15.99940
5036 OM 5036 OM OM1 5036 -0.550000 15.99940
5037 OM 5037 OM OM1 5037 -0.550000 15.99940
5038 OM 5038 OM OM1 5038 -0.550000 15.99940
5039 OM 5039 OM OM1 5039 -0.550000 15.99940
5040 OM 5040 OM OM1 5040 -0.550000 15.99940
5041 OM 5041 OM OM1 5041 -0.550000 15.99940
5042 OM 5042 OM OM1 5042 -0.550000 15.99940
5043 OM 5043 OM OM1 5043 -0.550000 15.99940
5044 OM 5044 OM OM1 5044 -0.550000 15.99940
5045 OM 5045 OM OM1 5045 -0.550000 15.99940
5046 OM 5046 OM OM1 5046 -0.550000 15.99940
5047 OM 5047 OM OM1 5047 -0.550000 15.99940
5048 OM 5048 OM OM1 5048 -0.550000 15.99940
5049 OM 5049 OM OM1 5049 -0.550000 15.99940
5050 OM 5050 OM OM1 5050 -0.550000 15.99940
5051 OM 5051 OM OM1 5051 -0.550000 15.99940
5052 OM 5052 OM OM1 5052 -0.550000 15.99940
5053 OM 5053 OM OM1 5053 -0.550000 15.99940
5054 OM 5054 OM OM1 5054 -0.550000 15.99940
5055 OM 5055 OM OM1 5055 -0.550000 15.99940
5056 OM 5056 OM OM1 5056 -0.550000 15.99940
5057 OM 5057 OM OM1 5057 -0.550000 15.99940
5058 OM 5058 OM OM1 5058 -0.550000 15.99940
5059 OM 5059 OM OM1 5059 -0.550000 15.99940
5060 OM 5060 OM OM1 5060 -0.550000 15.99940
5061 OM 5061 OM OM1 5061 -0.550000 15.99940
5062 OM 5062 OM OM1 5062 -0.550000 15.99940
5063 OM 5063 OM OM1 5063 -0.550000 15.99940
5064 OM 5064 OM OM1 5064 -0.550000 15.99940
5065 OM 5065 OM OM1 5065 -0.550000 15.99940
5066 OM 5066 OM OM1 5066 -0.550000 15.99940
5067 OM 5067 OM OM1 5067 -0.550000 15.99940
5068 OM 5068 OM OM1 5068 -0.550000 15.99940
5069 OM 5069 OM OM1 5069 -0.550000 15.99940
5070 OM 5070 OM OM1 5070 -0.550000 15.99940
5071 OM 5071 OM OM1 5071 -0.550000 15.99940
5072 OM 5072 OM OM1 5072 -0.550000 15.99940
5073 OM 5073 OM OM1 5073 -0.550000 15.99940
5074 OM 5074 OM OM1 5074 -0.550000 15.99940
5075 OM 5075 OM OM1 5075 -0.550000 15.99940
5076 OM 5076 OM OM1 5076 -0.550000 15.99940
5077 OM 5077 OM OM1 5077 -0.550000 15.99940
5078 OM 5078 OM OM1 5078 -0.550000 15.99940
5079 OM 5079 OM OM1 5079 -0.550000 15.99940
5080 OM 5080 OM OM1 5080 -0.550000 15.99940
5081 OM 5081 OM OM1 5081 -0.550000 15.99940
5082 OM 5082 OM OM1 5082 -0.550000 15.99940
5083 OM 5083 OM OM1 5083 -0.550000 15.99940
5084 OM 5084 OM OM1 5084 -0.550000 15.99940
5085 OM 5085 OM OM1 5085 -0.550000 15.99940
5086 OM 5086 OM OM1 5086 -0.550000 15.99940
5087 OM 5087 OM OM1 5087 -0.550000 15.99940
5088 OM 5088 OM OM1 5088 -0.550000 15.99940
5089 OM 5089 OM OM1 5089 -0.550000 15.99940
5090 OM 5090 OM OM1 5090 -0.550000 15.99940
5091 OM 5091 OM OM1 5091 -0.550000 15.99940
5092 OM 5092 OM OM1 5092 -0.550000 15.99940
5093 OM 5093 OM OM1 5093 -0.550000 15.99940
5094 OM 5094 OM OM1 5094 -0.550000 15.99940
5095 OM 5095 OM OM1 5095 -0.550000 15.99940
5096 OM 5096 OM OM1 5096 -0.550000 15.99940
5097 OM 5097 OM OM1 5097 -0.550000 15.99940
5098 OM 5098 OM OM1 5098 -0.550000 15.99940
5099 OM 5099 OM OM1 5099 -0.550000 15.99940
5100 OM 5100 OM OM1 5100 -0.550000 15.99940
5101 OM 5101 OM OM1 5101 -0.550000 15.99940
5102 OM 5102 OM OM1 5102 -0.550000 15.99940
5103 OM 5103 OM OM1 5103 -0.550000 15.99940
5104 OM 5104 OM OM1 5104 -0.550000 15.99940
5105 OM 5105 OM OM1 5105 -0.550000 15.99940
5106 OM 5106 OM OM1 5106 -0.550000 15.99940
5107 OM 5107 OM OM1 5107 -0.550000 15.99940
5108 OM 5108 OM OM1 5108 -0.550000 15.99940
5109 OM 5109 OM OM1 5109 -0.550000 15.99940
5110 OM 5110 OM OM1 5110 -0.550000 15.99940
5111 OM 5111 OM OM1 5111 -0.550000 15.99940
5112 OM 5112 OM OM1 5112 -0.550000 15.99940
5113 OM 5113 OM OM1 5113 -0.550000 15.99940
5114 OM 5114 OM OM1 5114 -0.550000 15.99940
5115 OM 5115 OM OM1 5115 -0.550000 15.99940
5116 OM 5116 OM OM1 5116 -0.550000 15.99940
5117 OM 5117 OM OM1 5117 -0.550000 15.99940
5118 OM 5118 OM OM1 5118 -0.550000 15.99940
5119 OM 5119 OM OM1 5119 -0.550000 15.99940
5120 OM 5120 OM OM1 5120 -0.550000 15.99940
5121 OM 5121 OM OM1 5121 -0.550000 15.99940
5122 OM 5122 OM OM1 5122 -0.550000 15.99940
5123 OM 5123 OM OM1 5123 -0.550000 15.99940
5124 OM 5124 OM OM1 5124 -0.550000 15.99940
5125 OM 5125 OM OM1 5125 -0.550000 15.99940
5126 OM 5126 OM OM1 5126 -0.550000 15.99940
5127 OM 5127 OM OM1 5127 -0.550000 15.99940
5128 OM 5128 OM OM1 5128 -0.550000 15.99940
5129 OM 5129 OM OM1 5129 -0.550000 15.99940
5130 OM 5130 OM OM1 5130 -0.550000 15.99940
5131 OM 5131 OM OM1 5131 -0.550000 15.99940
5132 OM 5132 OM OM1 5132 -0.550000 15.99940
5133 OM 5133 OM OM1 5133 -0.550000 15.99940
5134 OM 5134 OM OM1 5134 -0.550000 15.99940
5135 OM 5135 OM OM1 5135 -0.550000 15.99940
5136 OM 5136 OM OM1 5136 -0.550000 15.99940
5137 OM 5137 OM OM1 5137 -0.550000 15.99940
5138 OM 5138 OM OM1 5138 -0.550000 15.99940
5139 OM 5139 OM OM1 5139 -0.550000 15.99940
5140 OM 5140 OM OM1 5140 -0.550000 15.99940
5141 OM 5141 OM OM1 5141 -0.550000 15.99940
5142 OM 5142 OM OM1 5142 -0.550000 15.99940
5143 OM 5143 OM OM1 5143 -0.550000 15.99940
5144 OM 5144 OM OM1 5144 -0.550000 15.99940
5145 OM 5145 OM OM1 5145 -0.550000 15.99940
5146 OM 5146 OM OM1 5146 -0.550000 15.99940
5147 OM 5147 OM OM1 5147 -0.550000 15.99940
5148 OM 5148 OM OM1 5148 -0.550000 15.99940
5149 OM 5149 OM OM1 5149 -0.550000 15.99940
5150 OM 5150 OM OM1 5150 -0.550000 15.99940
5151 OM 5151 OM OM1 5151 -0.550000 15.99940
5152 OM 5152 OM OM1 5152 -0.550000 15.99940
5153 OM 5153 OM OM1 5153 -0.550000 15.99940
5154 OM 5154 OM OM1 5154 -0.550000 15.99940
5155 OM 5155 OM OM1 5155 -0.550000 15.99940
5156 OM 5156 OM OM1 5156 -0.550000 15.99940
5157 OM 5157 OM OM1 5157 -0.550000 15.99940
5158 OM 5158 OM OM1 5158 -0.550000 15.99940
5159 OM 5159 OM OM1 5159 -0.550000 15.99940
5160 OM 5160 OM OM1 5160 -0.550000 15.99940
5161 OM 5161 OM OM1 5161 -0.550000 15.99940
5162 OM 5162 OM OM1 5162 -0.550000 15.99940
5163 OM 5163 OM OM1 5163 -0.550000 15.99940
5164 OM 5164 OM OM1 5164 -0.550000 15.99940
5165 OM 5165 OM OM1 5165 -0.550000 15.99940
5166 OM 5166 OM OM1 5166 -0.550000 15.99940
5167 OM 5167 OM OM1 5167 -0.550000 15.99940
5168 OM 5168 OM OM1 5168 -0.550000 15.99940
5169 OM 5169 OM OM1 5169 -0.550000 15.99940
5170 OM 5170 OM OM1 5170 -0.550000 15.99940
5171 OM 5171 OM OM1 5171 -0.550000 15.99940
5172 OM 5172 OM OM1 5172 -0.550000 15.99940
5173 OM 5173 OM OM1 5173 -0.550000 15.99940
5174 OM 5174 OM OM1 5174 -0.550000 15.99940
5175 OM 5175 OM OM1 5175 -0.550000 15.99940
5176 OM 5176 OM OM1 5176 -0.550000 15.99940
5177 OM 5177 OM OM1 5177 -0.550000 15.99940
5178 OM 5178 OM OM1 5178 -0.550000 15.99940
5179 OM 5179 OM OM1 5179 -0.550000 15.99940
5180 OM 5180 OM OM1 5180 -0.550000 15.99940
5181 OM 5181 OM OM1 5181 -0.550000 15.99940
5182 OM 5182 OM OM1 5182 -0.550000 15.99940
5183 OM 5183 OM OM1 5183 -0.550000 15.99940
5184 OM 5184 OM OM1 5184 -0.550000 15.99940
5185 OM 5185 OM OM1 5185 -0.550000 15.99940
5186 OM 5186 OM OM1 5186 -0.550000 15.99940
5187 OM 5187 OM OM1 5187 -0.550000 15.99940
5188 OM 5188 OM OM1 5188 -0.550000 15.99940
5189 OM 5189 OM OM1 5189 -0.550000 15.99940
5190 OM 5190 OM OM1 5190 -0.550000 15.99940
5191 OM 5191 OM OM1 5191 -0.550000 15.99940
5192 OM 5192 OM OM1 5192 -0.550000 15.99940
5193 OM 5193 OM OM1 5193 -0.550000 15.99940
5194 OM 5194 OM OM1 5194 -0.550000 15.99940
5195 OM 5195 OM OM1 5195 -0.550000 15.99940
5196 OM 5196 OM OM1 5196 -0.550000 15.99940
5197 OM 5197 OM OM1 5197 -0.550000 15.99940
5198 OM 5198 OM OM1 5198 -0.550000 15.99940
5199 OM 5199 OM OM1 5199 -0.550000 15.99940
5200 OM 5200 OM OM1 5200 -0.550000 15.99940
5201 OM 5201 OM OM1 5201 -0.550000 15.99940
5202 OM 5202 OM OM1 5202 -0.550000 15.99940
5203 OM 5203 OM OM1 5203 -0.550000 15.99940
5204 OM 5204 OM OM1 5204 -0.550000 15.99940
5205 OM 5205 OM OM1 5205 -0.550000 15.99940
5206 OM 5206 OM OM1 5206 -0.550000 15.99940
5207 OM 5207 OM OM1 5207 -0.550000 15.99940
5208 OM 5208 OM OM1 5208 -0.550000 15.99940
5209 OM 5209 OM OM1 5209 -0.550000 15.99940
5210 OM 5210 OM OM1 5210 -0.550000 15.99940
5211 OM 5211 OM OM1 5211 -0.550000 15.99940
5212 OM 5212 OM OM1 5212 -0.550000 15.99940
5213 OM 5213 OM OM1 5213 -0.550000 15.99940
5214 OM 5214 OM OM1 5214 -0.550000 15.99940
5215 OM 5215 OM OM1 5215 -0.550000 15.99940
5216 OM 5216 OM OM1 5216 -0.550000 15.99940
5217 OM 5217 OM OM1 5217 -0.550000 15.99940
5218 OM 5218 OM OM1 5218 -0.550000 15.99940
5219 OM 5219 OM OM1 5219 -0.550000 15.99940
5220 OM 5220 OM OM1 5220 -0.550000 15.99940
5221 OM 5221 OM OM1 5221 -0.550000 15.99940
5222 OM 5222 OM OM1 5222 -0.550000 15.99940
5223 OM 5223 OM OM1 5223 -0.550000 15.99940
5224 OM 5224 OM OM1 5224 -0.550000 15.99940
5225 OM 5225 OM OM1 5225 -0.550000 15.99940
5226 OM 5226 OM OM1 5226 -0.550000 15.99940
5227 OM 5227 OM OM1 5227 -0.550000 15.99940
5228 OM 5228 OM OM1 5228 -0.550000 15.99940
5229 OM 5229 OM OM1 5229 -0.550000 15.99940
5230 OM 5230 OM OM1 5230 -0.550000 15.99940
5231 OM 5231 OM OM1 5231 -0.550000 15.99940
5232 OM 5232 OM OM1 5232 -0.550000 15.99940
5233 OM 5233 OM OM1 5233 -0.550000 15.99940
5234 OM 5234 OM OM1 5234 -0.550000 15.99940
5235 OM 5235 OM OM1 5235 -0.550000 15.99940
5236 OM 5236 OM OM1 5236 -0.550000 15.99940
5237 OM 5237 OM OM1 5237 -0.550000 15.99940
5238 OM 5238 OM OM1 5238 -0.550000 15.99940
5239 OM 5239 OM OM1 5239 -0.550000 15.99940
5240 OM 5240 OM OM1 5240 -0.550000 15.99940
5241 OM 5241 OM OM1 5241 -0.550000 15.99940
5242 OM 5242 OM OM1 5242 -0.550000 15.99940
5243 OM 5243 OM OM1 5243 -0.550000 15.99940
5244 OM 5244 OM OM1 5244 -0.550000 15.99940
5245 OM 5245 OM OM1 5245 -0.550000 15.99940
5246 OM 5246 OM OM1 5246 -0.550000 15.99940
5247 OM 5247 OM OM1 5247 -0.550000 15.99940
5248 OM 5248 OM OM1 5248 -0.550000 15.99940
5249 OM 5249 OM OM1 5249 -0.550000 15.99940
5250 OM 5250 OM OM1 5250 -0.550000 15.99940
5251 OM 5251 OM OM1 5251 -0.550000 15.99940
5252 OM 5252 OM OM1 5252 -0.550000 15.99940
5253 OM 5253 OM OM1 5253 -0.550000 15.99940
5254 OM 5254 OM OM1 5254 -0.550000 15.99940
5255 OM 5255 OM OM1 5255 -0.550000 15.99940
5256 OM 5256 OM OM1 5256 -0.550000 15.99940
5257 OM 5257 OM OM1 5257 -0.550000 15.99940
5258 OM 5258 OM OM1 5258 -0.550000 15.99940
5259 OM 5259 OM OM1 5259 -0.550000 15.99940
5260 OM 5260 OM OM1 5260 -0.550000 15.99940
5261 OM 5261 OM OM1 5261 -0.550000 15.99940
5262 OM 5262 OM OM1 5262 -0.550000 15.99940
5263 OM 5263 OM OM1 5263 -0.550000 15.99940
5264 OM 5264 OM OM1 5264 -0.550000 15.99940
5265 OM 5265 OM OM1 5265 -0.550000 15.99940
5266 OM 5266 OM OM1 5266 -0.550000 15.99940
5267 OM 5267 OM OM1 5267 -0.550000 15.99940
5268 OM 5268 OM OM1 5268 -0.550000 15.99940
5269 OM 5269 OM OM1 5269 -0.550000 15.99940
5270 OM 5270 OM OM1 5270 -0.550000 15.99940
5271 OM 5271 OM OM1 5271 -0.550000 15.99940
5272 OM 5272 OM OM1 5272 -0.550000 15.99940
5273 OM 5273 OM OM1 5273 -0.550000 15.99940
5274 OM 5274 OM OM1 5274 -0.550000 15.99940
5275 OM 5275 OM OM1 5275 -0.550000 15.99940
5276 OM 5276 OM OM1 5276 -0.550000 15.99940
5277 OM 5277 OM OM1 5277 -0.550000 15.99940
5278 OM 5278 OM OM1 5278 -0.550000 15.99940
5279 OM 5279 OM OM1 5279 -0.550000 15.99940
5280 OM 5280 OM OM1 5280 -0.550000 15.99940
5281 OM 5281 OM OM1 5281 -0.550000 15.99940
5282 OM 5282 OM OM1 5282 -0.550000 15.99940
5283 OM 5283 OM OM1 5283 -0.550000 15.99940
5284 OM 5284 OM OM1 5284 -0.550000 15.99940
5285 OM 5285 OM OM1 5285 -0.550000 15.99940
5286 OM 5286 OM OM1 5286 -0.550000 15.99940
5287 OM 5287 OM OM1 5287 -0.550000 15.99940
5288 OM 5288 OM OM1 5288 -0.550000 15.99940
5289 OM 5289 OM OM1 5289 -0.550000 15.99940
5290 OM 5290 OM OM1 5290 -0.550000 15.99940
5291 OM 5291 OM OM1 5291 -0.550000 15.99940
5292 OM 5292 OM OM1 5292 -0.550000 15.99940
5293 OM 5293 OM OM1 5293 -0.550000 15.99940
5294 OM 5294 OM OM1 5294 -0.550000 15.99940
5295 OM 5295 OM OM1 5295 -0.550000 15.99940
5296 OM 5296 OM OM1 5296 -0.550000 15.99940
5297 OM 5297 OM OM1 5297 -0.550000 15.99940
5298 OM 5298 OM OM1 5298 -0.550000 15.99940
5299 OM 5299 OM OM1 5299 -0.550000 15.99940
5300 OM 5300 OM OM1 5300 -0.550000 15.99940
5301 OM 5301 OM OM1 5301 -0.550000 15.99940
5302 OM 5302 OM OM1 5302 -0.550000 15.99940
5303 OM 5303 OM OM1 5303 -0.550000 15.99940
5304 OM 5304 OM OM1 5304 -0.550000 15.99940
5305 OM 5305 OM OM1 5305 -0.550000 15.99940
5306 OM 5306 OM OM1 5306 -0.550000 15.99940
5307 OM 5307 OM OM1 5307 -0.550000 15.99940
5308 OM 5308 OM OM1 5308 -0.550000 15.99940
5309 OM 5309 OM OM1 5309 -0.550000 15.99940
5310 OM 5310 OM OM1 5310 -0.550000 15.99940
5311 OM 5311 OM OM1 5311 -0.550000 15.99940
5312 OM 5312 OM OM1 5312 -0.550000 15.99940
5313 OM 5313 OM OM1 5313 -0.550000 15.99940
5314 OM 5314 OM OM1 5314 -0.550000 15.99940
5315 OM 5315 OM OM1 5315 -0.550000 15.99940
5316 OM 5316 OM OM1 5316 -0.550000 15.99940
5317 OM 5317 OM OM1 5317 -0.550000 15.99940
5318 OM 5318 OM OM1 5318 -0.550000 15.99940
5319 OM 5319 OM OM1 5319 -0.550000 15.99940
5320 OM 5320 OM OM1 5320 -0.550000 15.99940
5321 OM 5321 OM OM1 5321 -0.550000 15.99940
5322 OM 5322 OM OM1 5322 -0.550000 15.99940
5323 OM 5323 OM OM1 5323 -0.550000 15.99940
5324 OM 5324 OM OM1 5324 -0.550000 15.99940
5325 OM 5325 OM OM1 5325 -0.550000 15.99940
5326 OM 5326 OM OM1 5326 -0.550000 15.99940
5327 OM 5327 OM OM1 5327 -0.550000 15.99940
5328 OM 5328 OM OM1 5328 -0.550000 15.99940
5329 OM 5329 OM OM1 5329 -0.550000 15.99940
5330 OM 5330 OM OM1 5330 -0.550000 15.99940
5331 OM 5331 OM OM1 5331 -0.550000 15.99940
5332 OM 5332 OM OM1 5332 -0.550000 15.99940
5333 OM 5333 OM OM1 5333 -0.550000 15.99940
5334 OM 5334 OM OM1 5334 -0.550000 15.99940
5335 OM 5335 OM OM1 5335 -0.550000 15.99940
5336 OM 5336 OM OM1 5336 -0.550000 15.99940
5337 OM 5337 OM OM1 5337 -0.550000 15.99940
5338 OM 5338 OM OM1 5338 -0.550000 15.99940
5339 OM 5339 OM OM1 5339 -0.550000 15.99940
5340 OM 5340 OM OM1 5340 -0.550000 15.99940
5341 OM 5341 OM OM1 5341 -0.550000 15.99940
5342 OM 5342 OM OM1 5342 -0.550000 15.99940
5343 OM 5343 OM OM1 5343 -0.550000 15.99940
5344 OM 5344 OM OM1 5344 -0.550000 15.99940
5345 OM 5345 OM OM1 5345 -0.550000 15.99940
5346 OM 5346 OM OM1 5346 -0.550000 15.99940
5347 OM 5347 OM OM1 5347 -0.550000 15.99940
5348 OM 5348 OM OM1 5348 -0.550000 15.99940
5349 OM 5349 OM OM1 5349 -0.550000 15.99940
5350 OM 5350 OM OM1 5350 -0.550000 15.99940
5351 OM 5351 OM OM1 5351 -0.550000 15.99940
5352 OM 5352 OM OM1 5352 -0.550000 15.99940
5353 OM 5353 OM OM1 5353 -0.550000 15.99940
5354 OM 5354 OM OM1 5354 -0.550000 15.99940
5355 OM 5355 OM OM1 5355 -0.550000 15.99940
5356 OM 5356 OM OM1 5356 -0.550000 15.99940
5357 OM 5357 OM OM1 5357 -0.550000 15.99940
5358 OM 5358 OM OM1 5358 -0.550000 15.99940
5359 OM 5359 OM OM1 5359 -0.550000 15.99940
5360 OM 5360 OM OM1 5360 -0.550000 15.99940
5361 OM 5361 OM OM1 5361 -0.550000 15.99940
5362 OM 5362 OM OM1 5362 -0.550000 15.99940
5363 OM 5363 OM OM1 5363 -0.550000 15.99940
5364 OM 5364 OM OM1 5364 -0.550000 15.99940
5365 OM 5365 OM OM1 5365 -0.550000 15.99940
5366 OM 5366 OM OM1 5366 -0.550000 15.99940
5367 OM 5367 OM OM1 5367 -0.550000 15.99940
5368 OM 5368 OM OM1 5368 -0.550000 15.99940
5369 OM 5369 OM OM1 5369 -0.550000 15.99940
5370 OM 5370 OM OM1 5370 -0.550000 15.99940
5371 OM 5371 OM OM1 5371 -0.550000 15.99940
5372 OM 5372 OM OM1 5372 -0.550000 15.99940
5373 OM 5373 OM OM1 5373 -0.550000 15.99940
5374 OM 5374 OM OM1 5374 -0.550000 15.99940
5375 OM 5375 OM OM1 5375 -0.550000 15.99940
5376 OM 5376 OM OM1 5376 -0.550000 15.99940
5377 OM 5377 OM OM1 5377 -0.550000 15.99940
5378 OM 5378 OM OM1 5378 -0.550000 15.99940
5379 OM 5379 OM OM1 5379 -0.550000 15.99940
5380 OM 5380 OM OM1 5380 -0.550000 15.99940
5381 OM 5381 OM OM1 5381 -0.550000 15.99940
5382 OM 5382 OM OM1 5382 -0.550000 15.99940
5383 OM 5383 OM OM1 5383 -0.550000 15.99940
5384 OM 5384 OM OM1 5384 -0.550000 15.99940
5385 OM 5385 OM OM1 5385 -0.550000 15.99940
5386 OM 5386 OM OM1 5386 -0.550000 15.99940
5387 OM 5387 OM OM1 5387 -0.550000 15.99940
5388 OM 5388 OM OM1 5388 -0.550000 15.99940
5389 OM 5389 OM OM1 5389 -0.550000 15.99940
5390 OM 5390 OM OM1 5390 -0.550000 15.99940
5391 OM 5391 OM OM1 5391 -0.550000 15.99940
5392 OM 5392 OM OM1 5392 -0.550000 15.99940
5393 OM 5393 OM OM1 5393 -0.550000 15.99940
5394 OM 5394 OM OM1 5394 -0.550000 15.99940
5395 OM 5395 OM OM1 5395 -0.550000 15.99940
5396 OM 5396 OM OM1 5396 -0.550000 15.99940
5397 OM 5397 OM OM1 5397 -0.550000 15.99940
5398 OM 5398 OM OM1 5398 -0.550000 15.99940
5399 OM 5399 OM OM1 5399 -0.550000 15.99940
5400 OM 5400 OM OM1 5400 -0.550000 15.99940
5401 OM 5401 OM OM1 5401 -0.550000 15.99940
5402 OM 5402 OM OM1 5402 -0.550000 15.99940
5403 OM 5403 OM OM1 5403 -0.550000 15.99940
5404 OM 5404 OM OM1 5404 -0.550000 15.99940
5405 OM 5405 OM OM1 5405 -0.550000 15.99940
5406 OM 5406 OM OM1 5406 -0.550000 15.99940
5407 OM 5407 OM OM1 5407 -0.550000 15.99940
5408 OM 5408 OM OM1 5408 -0.550000 15.99940
5409 OM 5409 OM OM1 5409 -0.550000 15.99940
5410 OM 5410 OM OM1 5410 -0.550000 15.99940
5411 OM 5411 OM OM1 5411 -0.550000 15.99940
5412 OM 5412 OM OM1 5412 -0.550000 15.99940
5413 OM 5413 OM OM1 5413 -0.550000 15.99940
5414 OM 5414 OM OM1 5414 -0.550000 15.99940
5415 OM 5415 OM OM1 5415 -0.550000 15.99940
5416 OM 5416 OM OM1 5416 -0.550000 15.99940
5417 OM 5417 OM OM1 5417 -0.550000 15.99940
5418 OM 5418 OM OM1 5418 -0.550000 15.99940
5419 OM 5419 OM OM1 5419 -0.550000 15.99940
5420 OM 5420 OM OM1 5420 -0.550000 15.99940
5421 OM 5421 OM OM1 5421 -0.550000 15.99940
5422 OM 5422 OM OM1 5422 -0.550000 15.99940
5423 OM 5423 OM OM1 5423 -0.550000 15.99940
5424 OM 5424 OM OM1 5424 -0.550000 15.99940
5425 OM 5425 OM OM1 5425 -0.550000 15.99940
5426 OM 5426 OM OM1 5426 -0.550000 15.99940
5427 OM 5427 OM OM1 5427 -0.550000 15.99940
5428 OM 5428 OM OM1 5428 -0.550000 15.99940
5429 OM 5429 OM OM1 5429 -0.550000 15.99940
5430 OM 5430 OM OM1 5430 -0.550000 15.99940
5431 OM 5431 OM OM1 5431 -0.550000 15.99940
5432 OM 5432 OM OM1 5432 -0.550000 15.99940
5433 OM 5433 OM OM1 5433 -0.550000 15.99940
5434 OM 5434 OM OM1 5434 -0.550000 15.99940
5435 OM 5435 OM OM1 5435 -0.550000 15.99940
5436 OM 5436 OM OM1 5436 -0.550000 15.99940
5437 OM 5437 OM OM1 5437 -0.550000 15.99940
5438 OM 5438 OM OM1 5438 -0.550000 15.99940
5439 OM 5439 OM OM1 5439 -0.550000 15.99940
5440 OM 5440 OM OM1 5440 -0.550000 15.99940
5441 OM 5441 OM OM1 5441 -0.550000 15.99940
5442 OM 5442 OM OM1 5442 -0.550000 15.99940
5443 OM 5443 OM OM1 5443 -0.550000 15.99940
5444 OM 5444 OM OM1 5444 -0.550000 15.99940
5445 OM 5445 OM OM1 5445 -0.550000 15.99940
5446 OM 5446 OM OM1 5446 -0.550000 15.99940
5447 OM 5447 OM OM1 5447 -0.550000 15.99940
5448 OM 5448 OM OM1 5448 -0.550000 15.99940
5449 OM 5449 OM OM1 5449 -0.550000 15.99940
5450 OM 5450 OM OM1 5450 -0.550000 15.99940
5451 OM 5451 OM OM1 5451 -0.550000 15.99940
5452 OM 5452 OM OM1 5452 -0.550000 15.99940
5453 OM 5453 OM OM1 5453 -0.550000 15.99940
5454 OM 5454 OM OM1 5454 -0.550000 15.99940
5455 OM 5455 OM OM1 5455 -0.550000 15.99940
5456 OM 5456 OM OM1 5456 -0.550000 15.99940
5457 OM 5457 OM OM1 5457 -0.550000 15.99940
5458 OM 5458 OM OM1 5458 -0.550000 15.99940
5459 OM 5459 OM OM1 5459 -0.550000 15.99940
5460 OM 5460 OM OM1 5460 -0.550000 15.99940
5461 OM 5461 OM OM1 5461 -0.550000 15.99940
5462 OM 5462 OM OM1 5462 -0.550000 15.99940
5463 OM 5463 OM OM1 5463 -0.550000 15.99940
5464 OM 5464 OM OM1 5464 -0.550000 15.99940
5465 OM 5465 OM OM1 5465 -0.550000 15.99940
5466 OM 5466 OM OM1 5466 -0.550000 15.99940
5467 OM 5467 OM OM1 5467 -0.550000 15.99940
5468 OM 5468 OM OM1 5468 -0.550000 15.99940
5469 OM 5469 OM OM1 5469 -0.550000 15.99940
5470 OM 5470 OM OM1 5470 -0.550000 15.99940
5471 OM 5471 OM OM1 5471 -0.550000 15.99940
5472 OM 5472 OM OM1 5472 -0.550000 15.99940
5473 OM 5473 OM OM1 5473 -0.550000 15.99940
5474 OM 5474 OM OM1 5474 -0.550000 15.99940
5475 OM 5475 OM OM1 5475 -0.550000 15.99940
5476 OM 5476 OM OM1 5476 -0.550000 15.99940
5477 OM 5477 OM OM1 5477 -0.550000 15.99940
5478 OM 5478 OM OM1 5478 -0.550000 15.99940
5479 OM 5479 OM OM1 5479 -0.550000 15.99940
5480 OM 5480 OM OM1 5480 -0.550000 15.99940
5481 OM 5481 OM OM1 5481 -0.550000 15.99940
5482 OM 5482 OM OM1 5482 -0.550000 15.99940
5483 OM 5483 OM OM1 5483 -0.550000 15.99940
5484 OM 5484 OM OM1 5484 -0.550000 15.99940
5485 OM 5485 OM OM1 5485 -0.550000 15.99940
5486 OM 5486 OM OM1 5486 -0.550000 15.99940
5487 OM 5487 OM OM1 5487 -0.550000 15.99940
5488 OM 5488 OM OM1 5488 -0.550000 15.99940
5489 OM 5489 OM OM1 5489 -0.550000 15.99940
5490 OM 5490 OM OM1 5490 -0.550000 15.99940
5491 OM 5491 OM OM1 5491 -0.550000 15.99940
5492 OM 5492 OM OM1 5492 -0.550000 15.99940
5493 OM 5493 OM OM1 5493 -0.550000 15.99940
5494 OM 5494 OM OM1 5494 -0.550000 15.99940
5495 OM 5495 OM OM1 5495 -0.550000 15.99940
5496 OM 5496 OM OM1 5496 -0.550000 15.99940
5497 OM 5497 OM OM1 5497 -0.550000 15.99940
5498 OM 5498 OM OM1 5498 -0.550000 15.99940
5499 OM 5499 OM OM1 5499 -0.550000 15.99940
5500 OM 5500 OM OM1 5500 -0.550000 15.99940
5501 OM 5501 OM OM1 5501 -0.550000 15.99940
5502 OM 5502 OM OM1 5502 -0.550000 15.99940
5503 OM 5503 OM OM1 5503 -0.550000 15.99940
5504 OM 5504 OM OM1 5504 -0.550000 15.99940
5505 OM 5505 OM OM1 5505 -0.550000 15.99940
5506 OM 5506 OM OM1 5506 -0.550000 15.99940
5507 OM 5507 OM OM1 5507 -0.550000 15.99940
5508 OM 5508 OM OM1 5508 -0.550000 15.99940
5509 OM 5509 OM OM1 5509 -0.550000 15.99940
5510 OM 5510 OM OM1 5510 -0.550000 15.99940
5511 OM 5511 OM OM1 5511 -0.550000 15.99940
5512 OM 5512 OM OM1 5512 -0.550000 15.99940
5513 OM 5513 OM OM1 5513 -0.550000 15.99940
5514 OM 5514 OM OM1 5514 -0.550000 15.99940
5515 OM 5515 OM OM1 5515 -0.550000 15.99940
5516 OM 5516 OM OM1 5516 -0.550000 15.99940
5517 OM 5517 OM OM1 5517 -0.550000 15.99940
5518 OM 5518 OM OM1 5518 -0.550000 15.99940
5519 OM 5519 OM OM1 5519 -0.550000 15.99940
5520 OM 5520 OM OM1 5520 -0.550000 15.99940
5521 OM 5521 OM OM1 5521 -0.550000 15.99940
5522 OM 5522 OM OM1 5522 -0.550000 15.99940
5523 OM 5523 OM OM1 5523 -0.550000 15.99940
5524 OM 5524 OM OM1 5524 -0.550000 15.99940
5525 OM 5525 OM OM1 5525 -0.550000 15.99940
5526 OM 5526 OM OM1 5526 -0.550000 15.99940
5527 OM 5527 OM OM1 5527 -0.550000 15.99940
5528 OM 5528 OM OM1 5528 -0.550000 15.99940
5529 OM 5529 OM OM1 5529 -0.550000 15.99940
5530 OM 5530 OM OM1 5530 -0.550000 15.99940
5531 OM 5531 OM OM1 5531 -0.550000 15.99940
5532 OM 5532 OM OM1 5532 -0.550000 15.99940
5533 OM 5533 OM OM1 5533 -0.550000 15.99940
5534 OM 5534 OM OM1 5534 -0.550000 15.99940
5535 OM 5535 OM OM1 5535 -0.550000 15.99940
5536 OM 5536 OM OM1 5536 -0.550000 15.99940
5537 OM 5537 OM OM1 5537 -0.550000 15.99940
5538 OM 5538 OM OM1 5538 -0.550000 15.99940
5539 OM 5539 OM OM1 5539 -0.550000 15.99940
5540 OM 5540 OM OM1 5540 -0.550000 15.99940
5541 OM 5541 OM OM1 5541 -0.550000 15.99940
5542 OM 5542 OM OM1 5542 -0.550000 15.99940
5543 OM 5543 OM OM1 5543 -0.550000 15.99940
5544 OM 5544 OM OM1 5544 -0.550000 15.99940
5545 OM 5545 OM OM1 5545 -0.550000 15.99940
5546 OM 5546 OM OM1 5546 -0.550000 15.99940
5547 OM 5547 OM OM1 5547 -0.550000 15.99940
5548 OM 5548 OM OM1 5548 -0.550000 15.99940
5549 OM 5549 OM OM1 5549 -0.550000 15.99940
5550 OM 5550 OM OM1 5550 -0.550000 15.99940
5551 OM 5551 OM OM1 5551 -0.550000 15.99940
5552 OM 5552 OM OM1 5552 -0.550000 15.99940
5553 OM 5553 OM OM1 5553 -0.550000 15.99940
5554 OM 5554 OM OM1 5554 -0.550000 15.99940
5555 OM 5555 OM OM1 5555 -0.550000 15.99940
5556 OM 5556 OM OM1 5556 -0.550000 15.99940
5557 OM 5557 OM OM1 5557 -0.550000 15.99940
5558 OM 5558 OM OM1 5558 -0.550000 15.99940
5559 OM 5559 OM OM1 5559 -0.550000 15.99940
5560 OM 5560 OM OM1 5560 -0.550000 15.99940
5561 OM 5561 OM OM1 5561 -0.550000 15.99940
5562 OM 5562 OM OM1 5562 -0.550000 15.99940
5563 OM 5563 OM OM1 5563 -0.550000 15.99940
5564 OM 5564 OM OM1 5564 -0.550000 15.99940
5565 OM 5565 OM OM1 5565 -0.550000 15.99940
5566 OM 5566 OM OM1 5566 -0.550000 15.99940
5567 OM 5567 OM OM1 5567 -0.550000 15.99940
5568 OM 5568 OM OM1 5568 -0.550000 15.99940
5569 OM 5569 OM OM1 5569 -0.550000 15.99940
5570 OM 5570 OM OM1 5570 -0.550000 15.99940
5571 OM 5571 OM OM1 5571 -0.550000 15.99940
5572 OM 5572 OM OM1 5572 -0.550000 15.99940
5573 OM 5573 OM OM1 5573 -0.550000 15.99940
5574 OM 5574 OM OM1 5574 -0.550000 15.99940
5575 OM 5575 OM OM1 5575 -0.550000 15.99940
5576 OM 5576 OM OM1 5576 -0.550000 15.99940
5577 OM 5577 OM OM1 5577 -0.550000 15.99940
5578 OM 5578 OM OM1 5578 -0.550000 15.99940
5579 OM 5579 OM OM1 5579 -0.550000 15.99940
5580 OM 5580 OM OM1 5580 -0.550000 15.99940
5581 OM 5581 OM OM1 5581 -0.550000 15.99940
5582 OM 5582 OM OM1 5582 -0.550000 15.99940
5583 OM 5583 OM OM1 5583 -0.550000 15.99940
5584 OM 5584 OM OM1 5584 -0.550000 15.99940
5585 OM 5585 OM OM1 5585 -0.550000 15.99940
5586 OM 5586 OM OM1 5586 -0.550000 15.99940
5587 OM 5587 OM OM1 5587 -0.550000 15.99940
5588 OM 5588 OM OM1 5588 -0.550000 15.99940
5589 OM 5589 OM OM1 5589 -0.550000 15.99940
5590 OM 5590 OM OM1 5590 -0.550000 15.99940
5591 OM 5591 OM OM1 5591 -0.550000 15.99940
5592 OM 5592 OM OM1 5592 -0.550000 15.99940
5593 OM 5593 OM OM1 5593 -0.550000 15.99940
5594 OM 5594 OM OM1 5594 -0.550000 15.99940
5595 OM 5595 OM OM1 5595 -0.550000 15.99940
5596 OM 5596 OM OM1 5596 -0.550000 15.99940
5597 OM 5597 OM OM1 5597 -0.550000 15.99940
5598 OM 5598 OM OM1 5598 -0.550000 15.99940
5599 OM 5599 OM OM1 5599 -0.550000 15.99940
5600 OM 5600 OM OM1 5600 -0.550000 15.99940
5601 OM 5601 OM OM1 5601 -0.550000 15.99940
5602 OM 5602 OM OM1 5602 -0.550000 15.99940
5603 OM 5603 OM OM1 5603 -0.550000 15.99940
5604 OM 5604 OM OM1 5604 -0.550000 15.99940
5605 OM 5605 OM OM1 5605 -0.550000 15.99940
5606 OM 5606 OM OM1 5606 -0.550000 15.99940
5607 OM 5607 OM OM1 5607 -0.550000 15.99940
5608 OM 5608 OM OM1 5608 -0.550000 15.99940
5609 OM 5609 OM OM1 5609 -0.550000 15.99940
5610 OM 5610 OM OM1 5610 -0.550000 15.99940
5611 OM 5611 OM OM1 5611 -0.550000 15.99940
5612 OM 5612 OM OM1 5612 -0.550000 15.99940
5613 OM 5613 OM OM1 5613 -0.550000 15.99940
5614 OM 5614 OM OM1 5614 -0.550000 15.99940
5615 OM 5615 OM OM1 5615 -0.550000 15.99940
5616 OM 5616 OM OM1 5616 -0.550000 15.99940
5617 OM 5617 OM OM1 5617 -0.550000 15.99940
5618 OM 5618 OM OM1 5618 -0.550000 15.99940
5619 OM 5619 OM OM1 5619 -0.550000 15.99940
5620 OM 5620 OM OM1 5620 -0.550000 15.99940
5621 OM 5621 OM OM1 5621 -0.550000 15.99940
5622 OM 5622 OM OM1 5622 -0.550000 15.99940
5623 OM 5623 OM OM1 5623 -0.550000 15.99940
5624 OM 5624 OM OM1 5624 -0.550000 15.99940
5625 OM 5625 OM OM1 5625 -0.550000 15.99940
5626 OM 5626 OM OM1 5626 -0.550000 15.99940
5627 OM 5627 OM OM1 5627 -0.550000 15.99940
5628 OM 5628 OM OM1 5628 -0.550000 15.99940
5629 OM 5629 OM OM1 5629 -0.550000 15.99940
5630 OM 5630 OM OM1 5630 -0.550000 15.99940
5631 OM 5631 OM OM1 5631 -0.550000 15.99940
5632 OM 5632 OM OM1 5632 -0.550000 15.99940
5633 OM 5633 OM OM1 5633 -0.550000 15.99940
5634 OM 5634 OM OM1 5634 -0.550000 15.99940
5635 OM 5635 OM OM1 5635 -0.550000 15.99940
5636 OM 5636 OM OM1 5636 -0.550000 15.99940
5637 OM 5637 OM OM1 5637 -0.550000 15.99940
5638 OM 5638 OM OM1 5638 -0.550000 15.99940
5639 OM 5639 OM OM1 5639 -0.550000 15.99940
5640 OM 5640 OM OM1 5640 -0.550000 15.99940
5641 OM 5641 OM OM1 5641 -0.550000 15.99940
5642 OM 5642 OM OM1 5642 -0.550000 15.99940
5643 OM 5643 OM OM1 5643 -0.550000 15.99940
5644 OM 5644 OM OM1 5644 -0.550000 15.99940
5645 OM 5645 OM OM1 5645 -0.550000 15.99940
5646 OM 5646 OM OM1 5646 -0.550000 15.99940
5647 OM 5647 OM OM1 5647 -0.550000 15.99940
5648 OM 5648 OM OM1 5648 -0.550000 15.99940
5649 OM 5649 OM OM1 5649 -0.550000 15.99940
5650 OM 5650 OM OM1 5650 -0.550000 15.99940
5651 OM 5651 OM OM1 5651 -0.550000 15.99940
5652 OM 5652 OM OM1 5652 -0.550000 15.99940
5653 OM 5653 OM OM1 5653 -0.550000 15.99940
5654 OM 5654 OM OM1 5654 -0.550000 15.99940
5655 OM 5655 OM OM1 5655 -0.550000 15.99940
5656 OM 5656 OM OM1 5656 -0.550000 15.99940
5657 OM 5657 OM OM1 5657 -0.550000 15.99940
5658 OM 5658 OM OM1 5658 -0.550000 15.99940
5659 OM 5659 OM OM1 5659 -0.550000 15.99940
5660 OM 5660 OM OM1 5660 -0.550000 15.99940
5661 OM 5661 OM OM1 5661 -0.550000 15.99940
5662 OM 5662 OM OM1 5662 -0.550000 15.99940
5663 OM 5663 OM OM1 5663 -0.550000 15.99940
5664 OM 5664 OM OM1 5664 -0.550000 15.99940
5665 OM 5665 OM OM1 5665 -0.550000 15.99940
5666 OM 5666 OM OM1 5666 -0.550000 15.99940
5667 OM 5667 OM OM1 5667 -0.550000 15.99940
5668 OM 5668 OM OM1 5668 -0.550000 15.99940
5669 OM 5669 OM OM1 5669 -0.550000 15.99940
5670 OM 5670 OM OM1 5670 -0.550000 15.99940
5671 OM 5671 OM OM1 5671 -0.550000 15.99940
5672 OM 5672 OM OM1 5672 -0.550000 15.99940
5673 OM 5673 OM OM1 5673 -0.550000 15.99940
5674 OM 5674 OM OM1 5674 -0.550000 15.99940
5675 OM 5675 OM OM1 5675 -0.550000 15.99940
5676 OM 5676 OM OM1 5676 -0.550000 15.99940
5677 OM 5677 OM OM1 5677 -0.550000 15.99940
5678 OM 5678 OM OM1 5678 -0.550000 15.99940
5679 OM 5679 OM OM1 5679 -0.550000 15.99940
5680 OM 5680 OM OM1 5680 -0.550000 15.99940
5681 OM 5681 OM OM1 5681 -0.550000 15.99940
5682 OM 5682 OM OM1 5682 -0.550000 15.99940
5683 OM 5683 OM OM1 5683 -0.550000 15.99940
5684 OM 5684 OM OM1 5684 -0.550000 15.99940
5685 OM 5685 OM OM1 5685 -0.550000 15.99940
5686 OM 5686 OM OM1 5686 -0.550000 15.99940
5687 OM 5687 OM OM1 5687 -0.550000 15.99940
5688 OM 5688 OM OM1 5688 -0.550000 15.99940
5689 OM 5689 OM OM1 5689 -0.550000 15.99940
5690 OM 5690 OM OM1 5690 -0.550000 15.99940
5691 OM 5691 OM OM1 5691 -0.550000 15.99940
5692 OM 5692 OM OM1 5692 -0.550000 15.99940
5693 OM 5693 OM OM1 5693 -0.550000 15.99940
5694 OM 5694 OM OM1 5694 -0.550000 15.99940
5695 OM 5695 OM OM1 5695 -0.550000 15.99940
5696 OM 5696 OM OM1 5696 -0.550000 15.99940
5697 OM 5697 OM OM1 5697 -0.550000 15.99940
5698 OM 5698 OM OM1 5698 -0.550000 15.99940
5699 OM 5699 OM OM1 5699 -0.550000 15.99940
5700 OM 5700 OM OM1 5700 -0.550000 15.99940
5701 OM 5701 OM OM1 5701 -0.550000 15.99940
5702 OM 5702 OM OM1 5702 -0.550000 15.99940
5703 OM 5703 OM OM1 5703 -0.550000 15.99940
5704 OM 5704 OM OM1 5704 -0.550000 15.99940
5705 OM 5705 OM OM1 5705 -0.550000 15.99940
5706 OM 5706 OM OM1 5706 -0.550000 15.99940
5707 OM 5707 OM OM1 5707 -0.550000 15.99940
5708 OM 5708 OM OM1 5708 -0.550000 15.99940
5709 OM 5709 OM OM1 5709 -0.550000 15.99940
5710 OM 5710 OM OM1 5710 -0.550000 15.99940
5711 OM 5711 OM OM1 5711 -0.550000 15.99940
5712 OM 5712 OM OM1 5712 -0.550000 15.99940
5713 OM 5713 OM OM1 5713 -0.550000 15.99940
5714 OM 5714 OM OM1 5714 -0.550000 15.99940
5715 OM 5715 OM OM1 5715 -0.550000 15.99940
5716 OM 5716 OM OM1 5716 -0.550000 15.99940
5717 OM 5717 OM OM1 5717 -0.550000 15.99940
5718 OM 5718 OM OM1 5718 -0.550000 15.99940
5719 OM 5719 OM OM1 5719 -0.550000 15.99940
5720 OM 5720 OM OM1 5720 -0.550000 15.99940
5721 OM 5721 OM OM1 5721 -0.550000 15.99940
5722 OM 5722 OM OM1 5722 -0.550000 15.99940
5723 OM 5723 OM OM1 5723 -0.550000 15.99940
5724 OM 5724 OM OM1 5724 -0.550000 15.99940
5725 OM 5725 OM OM1 5725 -0.550000 15.99940
5726 OM 5726 OM OM1 5726 -0.550000 15.99940
5727 OM 5727 OM OM1 5727 -0.550000 15.99940
5728 OM 5728 OM OM1 5728 -0.550000 15.99940
5729 OM 5729 OM OM1 5729 -0.550000 15.99940
5730 OM 5730 OM OM1 5730 -0.550000 15.99940
5731 OM 5731 OM OM1 5731 -0.550000 15.99940
5732 OM 5732 OM OM1 5732 -0.550000 15.99940
5733 OM 5733 OM OM1 5733 -0.550000 15.99940
5734 OM 5734 OM OM1 5734 -0.550000 15.99940
5735 OM 5735 OM OM1 5735 -0.550000 15.99940
5736 OM 5736 OM OM1 5736 -0.550000 15.99940
5737 OM 5737 OM OM1 5737 -0.550000 15.99940
5738 OM 5738 OM OM1 5738 -0.550000 15.99940
5739 OM 5739 OM OM1 5739 -0.550000 15.99940
5740 OM 5740 OM OM1 5740 -0.550000 15.99940
5741 OM 5741 OM OM1 5741 -0.550000 15.99940
5742 OM 5742 OM OM1 5742 -0.550000 15.99940
5743 OM 5743 OM OM1 5743 -0.550000 15.99940
5744 OM 5744 OM OM1 5744 -0.550000 15.99940
5745 OM 5745 OM OM1 5745 -0.550000 15.99940
5746 OM 5746 OM OM1 5746 -0.550000 15.99940
5747 OM 5747 OM OM1 5747 -0.550000 15.99940
5748 OM 5748 OM OM1 5748 -0.550000 15.99940
5749 OM 5749 OM OM1 5749 -0.550000 15.99940
5750 OM 5750 OM OM1 5750 -0.550000 15.99940
5751 OM 5751 OM OM1 5751 -0.550000 15.99940
5752 OM 5752 OM OM1 5752 -0.550000 15.99940
5753 OM 5753 OM OM1 5753 -0.550000 15.99940
5754 OM 5754 OM OM1 5754 -0.550000 15.99940
5755 OM 5755 OM OM1 5755 -0.550000 15.99940
5756 OM 5756 OM OM1 5756 -0.550000 15.99940
5757 OM 5757 OM OM1 5757 -0.550000 15.99940
5758 OM 5758 OM OM1 5758 -0.550000 15.99940
5759 OM 5759 OM OM1 5759 -0.550000 15.99940
5760 OM 5760 OM OM1 5760 -0.550000 15.99940
5761 OM 5761 OM OM1 5761 -0.550000 15.99940
5762 OM 5762 OM OM1 5762 -0.550000 15.99940
5763 OM 5763 OM OM1 5763 -0.550000 15.99940
5764 OM 5764 OM OM1 5764 -0.550000 15.99940
5765 OM 5765 OM OM1 5765 -0.550000 15.99940
5766 OM 5766 OM OM1 5766 -0.550000 15.99940
5767 OM 5767 OM OM1 5767 -0.550000 15.99940
5768 OM 5768 OM OM1 5768 -0.550000 15.99940
5769 OM 5769 OM OM1 5769 -0.550000 15.99940
5770 OM 5770 OM OM1 5770 -0.550000 15.99940
5771 OM 5771 OM OM1 5771 -0.550000 15.99940
5772 OM 5772 OM OM1 5772 -0.550000 15.99940
5773 OM 5773 OM OM1 5773 -0.550000 15.99940
5774 OM 5774 OM OM1 5774 -0.550000 15.99940
5775 OM 5775 OM OM1 5775 -0.550000 15.99940
5776 OM 5776 OM OM1 5776 -0.550000 15.99940
5777 OM 5777 OM OM1 5777 -0.550000 15.99940
5778 OM 5778 OM OM1 5778 -0.550000 15.99940
5779 OM 5779 OM OM1 5779 -0.550000 15.99940
5780 OM 5780 OM OM1 5780 -0.550000 15.99940
5781 OM 5781 OM OM1 5781 -0.550000 15.99940
5782 OM 5782 OM OM1 5782 -0.550000 15.99940
5783 OM 5783 OM OM1 5783 -0.550000 15.99940
5784 OM 5784 OM OM1 5784 -0.550000 15.99940
5785 OM 5785 OM OM1 5785 -0.550000 15.99940
5786 OM 5786 OM OM1 5786 -0.550000 15.99940
5787 OM 5787 OM OM1 5787 -0.550000 15.99940
5788 OM 5788 OM OM1 5788 -0.550000 15.99940
5789 OM 5789 OM OM1 5789 -0.550000 15.99940
5790 OM 5790 OM OM1 5790 -0.550000 15.99940
5791 OM 5791 OM OM1 5791 -0.550000 15.99940
5792 OM 5792 OM OM1 5792 -0.550000 15.99940
5793 OM 5793 OM OM1 5793 -0.550000 15.99940
5794 OM 5794 OM OM1 5794 -0.550000 15.99940
5795 OM 5795 OM OM1 5795 -0.550000 15.99940
5796 OM 5796 OM OM1 5796 -0.550000 15.99940
5797 OM 5797 OM OM1 5797 -0.550000 15.99940
5798 OM 5798 OM OM1 5798 -0.550000 15.99940
5799 OM 5799 OM OM1 5799 -0.550000 15.99940
5800 OM 5800 OM OM1 5800 -0.550000 15.99940
5801 OM 5801 OM OM1 5801 -0.550000 15.99940
5802 OM 5802 OM OM1 5802 -0.550000 15.99940
5803 OM 5803 OM OM1 5803 -0.550000 15.99940
5804 OM 5804 OM OM1 5804 -0.550000 15.99940
5805 OM 5805 OM OM1 5805 -0.550000 15.99940
5806 OM 5806 OM OM1 5806 -0.550000 15.99940
5807 OM 5807 OM OM1 5807 -0.550000 15.99940
5808 OM 5808 OM OM1 5808 -0.550000 15.99940
5809 OM 5809 OM OM1 5809 -0.550000 15.99940
5810 OM 5810 OM OM1 5810 -0.550000 15.99940
5811 OM 5811 OM OM1 5811 -0.550000 15.99940
5812 OM 5812 OM OM1 5812 -0.550000 15.99940
5813 OM 5813 OM OM1 5813 -0.550000 15.99940
5814 OM 5814 OM OM1 5814 -0.550000 15.99940
5815 OM 5815 OM OM1 5815 -0.550000 15.99940
5816 OM 5816 OM OM1 5816 -0.550000 15.99940
5817 OM 5817 OM OM1 5817 -0.550000 15.99940
5818 OM 5818 OM OM1 5818 -0.550000 15.99940
5819 OM 5819 OM OM1 5819 -0.550000 15.99940
5820 OM 5820 OM OM1 5820 -0.550000 15.99940
5821 OM 5821 OM OM1 5821 -0.550000 15.99940
5822 OM 5822 OM OM1 5822 -0.550000 15.99940
5823 OM 5823 OM OM1 5823 -0.550000 15.99940
5824 OM 5824 OM OM1 5824 -0.550000 15.99940
5825 OM 5825 OM OM1 5825 -0.550000 15.99940
5826 OM 5826 OM OM1 5826 -0.550000 15.99940
5827 OM 5827 OM OM1 5827 -0.550000 15.99940
5828 OM 5828 OM OM1 5828 -0.550000 15.99940
5829 OM 5829 OM OM1 5829 -0.550000 15.99940
5830 OM 5830 OM OM1 5830 -0.550000 15.99940
5831 OM 5831 OM OM1 5831 -0.550000 15.99940
5832 OM 5832 OM OM1 5832 -0.550000 15.99940
5833 OM 5833 OM OM1 5833 -0.550000 15.99940
5834 OM 5834 OM OM1 5834 -0.550000 15.99940
5835 OM 5835 OM OM1 5835 -0.550000 15.99940
5836 OM 5836 OM OM1 5836 -0.550000 15.99940
5837 OM 5837 OM OM1 5837 -0.550000 15.99940
5838 OM 5838 OM OM1 5838 -0.550000 15.99940
5839 OM 5839 OM OM1 5839 -0.550000 15.99940
5840 OM 5840 OM OM1 5840 -0.550000 15.99940
5841 OM 5841 OM OM1 5841 -0.550000 15.99940
5842 OM 5842 OM OM1 5842 -0.550000 15.99940
5843 OM 5843 OM OM1 5843 -0.550000 15.99940
5844 OM 5844 OM OM1 5844 -0.550000 15.99940
5845 OM 5845 OM OM1 5845 -0.550000 15.99940
5846 OM 5846 OM OM1 5846 -0.550000 15.99940
5847 OM 5847 OM OM1 5847 -0.550000 15.99940
5848 OM 5848 OM OM1 5848 -0.550000 15.99940
5849 OM 5849 OM OM1 5849 -0.550000 15.99940
5850 OM 5850 OM OM1 5850 -0.550000 15.99940
5851 OM 5851 OM OM1 5851 -0.550000 15.99940
5852 OM 5852 OM OM1 5852 -0.550000 15.99940
5853 OM 5853 OM OM1 5853 -0.550000 15.99940
5854 OM 5854 OM OM1 5854 -0.550000 15.99940
5855 OM 5855 OM OM1 5855 -0.550000 15.99940
5856 OM 5856 OM OM1 5856 -0.550000 15.99940
5857 OM 5857 OM OM1 5857 -0.550000 15.99940
5858 OM 5858 OM OM1 5858 -0.550000 15.99940
5859 OM 5859 OM OM1 5859 -0.550000 15.99940
5860 OM 5860 OM OM1 5860 -0.550000 15.99940
5861 OM 5861 OM OM1 5861 -0.550000 15.99940
5862 OM 5862 OM OM1 5862 -0.550000 15.99940
5863 OM 5863 OM OM1 5863 -0.550000 15.99940
5864 OM 5864 OM OM1 5864 -0.550000 15.99940
5865 OM 5865 OM OM1 5865 -0.550000 15.99940
5866 OM 5866 OM OM1 5866 -0.550000 15.99940
5867 OM 5867 OM OM1 5867 -0.550000 15.99940
5868 OM 5868 OM OM1 5868 -0.550000 15.99940
5869 OM 5869 OM OM1 5869 -0.550000 15.99940
5870 OM 5870 OM OM1 5870 -0.550000 15.99940
5871 OM 5871 OM OM1 5871 -0.550000 15.99940
5872 OM 5872 OM OM1 5872 -0.550000 15.99940
5873 OM 5873 OM OM1 5873 -0.550000 15.99940
5874 OM 5874 OM OM1 5874 -0.550000 15.99940
5875 OM 5875 OM OM1 5875 -0.550000 15.99940
5876 OM 5876 OM OM1 5876 -0.550000 15.99940
5877 OM 5877 OM OM1 5877 -0.550000 15.99940
5878 OM 5878 OM OM1 5878 -0.550000 15.99940
5879 OM 5879 OM OM1 5879 -0.550000 15.99940
5880 OM 5880 OM OM1 5880 -0.550000 15.99940
5881 OM 5881 OM OM1 5881 -0.550000 15.99940
5882 OM 5882 OM OM1 5882 -0.550000 15.99940
5883 OM 5883 OM OM1 5883 -0.550000 15.99940
5884 OM 5884 OM OM1 5884 -0.550000 15.99940
5885 OM 5885 OM OM1 5885 -0.550000 15.99940
5886 OM 5886 OM OM1 5886 -0.550000 15.99940
5887 OM 5887 OM OM1 5887 -0.550000 15.99940
5888 OM 5888 OM OM1 5888 -0.550000 15.99940
5889 OM 5889 OM OM1 5889 -0.550000 15.99940
5890 OM 5890 OM OM1 5890 -0.550000 15.99940
5891 OM 5891 OM OM1 5891 -0.550000 15.99940
5892 OM 5892 OM OM1 5892 -0.550000 15.99940
5893 OM 5893 OM OM1 5893 -0.550000 15.99940
5894 OM 5894 OM OM1 5894 -0.550000 15.99940
5895 OM 5895 OM OM1 5895 -0.550000 15.99940
5896 OM 5896 OM OM1 5896 -0.550000 15.99940
5897 OM 5897 OM OM1 5897 -0.550000 15.99940
5898 OM 5898 OM OM1 5898 -0.550000 15.99940
5899 OM 5899 OM OM1 5899 -0.550000 15.99940
5900 OM 5900 OM OM1 5900 -0.550000 15.99940
5901 OM 5901 OM OM1 5901 -0.550000 15.99940
5902 OM 5902 OM OM1 5902 -0.550000 15.99940
5903 OM 5903 OM OM1 5903 -0.550000 15.99940
5904 OM 5904 OM OM1 5904 -0.550000 15.99940
5905 OM 5905 OM OM1 5905 -0.550000 15.99940
5906 OM 5906 OM OM1 5906 -0.550000 15.99940
5907 OM 5907 OM OM1 5907 -0.550000 15.99940
5908 OM 5908 OM OM1 5908 -0.550000 15.99940
5909 OM 5909 OM OM1 5909 -0.550000 15.99940
5910 OM 5910 OM OM1 5910 -0.550000 15.99940
5911 OM 5911 OM OM1 5911 -0.550000 15.99940
5912 OM 5912 OM OM1 5912 -0.550000 15.99940
5913 OM 5913 OM OM1 5913 -0.550000 15.99940
5914 OM 5914 OM OM1 5914 -0.550000 15.99940
5915 OM 5915 OM OM1 5915 -0.550000 15.99940
5916 OM 5916 OM OM1 5916 -0.550000 15.99940
5917 OM 5917 OM OM1 5917 -0.550000 15.99940
5918 OM 5918 OM OM1 5918 -0.550000 15.99940
5919 OM 5919 OM OM1 5919 -0.550000 15.99940
5920 OM 5920 OM OM1 5920 -0.550000 15.99940
5921 OM 5921 OM OM1 5921 -0.550000 15.99940
5922 OM 5922 OM OM1 5922 -0.550000 15.99940
5923 OM 5923 OM OM1 5923 -0.550000 15.99940
5924 OM 5924 OM OM1 5924 -0.550000 15.99940
5925 OM 5925 OM OM1 5925 -0.550000 15.99940
5926 OM 5926 OM OM1 5926 -0.550000 15.99940
5927 OM 5927 OM OM1 5927 -0.550000 15.99940
5928 OM 5928 OM OM1 5928 -0.550000 15.99940
5929 OM 5929 OM OM1 5929 -0.550000 15.99940
5930 OM 5930 OM OM1 5930 -0.550000 15.99940
5931 OM 5931 OM OM1 5931 -0.550000 15.99940
5932 OM 5932 OM OM1 5932 -0.550000 15.99940
5933 OM 5933 OM OM1 5933 -0.550000 15.99940
5934 OM 5934 OM OM1 5934 -0.550000 15.99940
5935 OM 5935 OM OM1 5935 -0.550000 15.99940
5936 OM 5936 OM OM1 5936 -0.550000 15.99940
5937 OM 5937 OM OM1 5937 -0.550000 15.99940
5938 OM 5938 OM OM1 5938 -0.550000 15.99940
5939 OM 5939 OM OM1 5939 -0.550000 15.99940
5940 OM 5940 OM OM1 5940 -0.550000 15.99940
5941 OM 5941 OM OM1 5941 -0.550000 15.99940
5942 OM 5942 OM OM1 5942 -0.550000 15.99940
5943 OM 5943 OM OM1 5943 -0.550000 15.99940
5944 OM 5944 OM OM1 5944 -0.550000 15.99940
5945 OM 5945 OM OM1 5945 -0.550000 15.99940
5946 OM 5946 OM OM1 5946 -0.550000 15.99940
5947 OM 5947 OM OM1 5947 -0.550000 15.99940
5948 OM 5948 OM OM1 5948 -0.550000 15.99940
5949 OM 5949 OM OM1 5949 -0.550000 15.99940
5950 OM 5950 OM OM1 5950 -0.550000 15.99940
5951 OM 5951 OM OM1 5951 -0.550000 15.99940
5952 OM 5952 OM OM1 5952 -0.550000 15.99940
5953 OM 5953 OM OM1 5953 -0.550000 15.99940
5954 OM 5954 OM OM1 5954 -0.550000 15.99940
5955 OM 5955 OM OM1 5955 -0.550000 15.99940
5956 OM 5956 OM OM1 5956 -0.550000 15.99940
5957 OM 5957 OM OM1 5957 -0.550000 15.99940
5958 OM 5958 OM OM1 5958 -0.550000 15.99940
5959 OM 5959 OM OM1 5959 -0.550000 15.99940
5960 OM 5960 OM OM1 5960 -0.550000 15.99940
5961 OM 5961 OM OM1 5961 -0.550000 15.99940
5962 OM 5962 OM OM1 5962 -0.550000 15.99940
5963 OM 5963 OM OM1 5963 -0.550000 15.99940
5964 OM 5964 OM OM1 5964 -0.550000 15.99940
5965 OM 5965 OM OM1 5965 -0.550000 15.99940
5966 OM 5966 OM OM1 5966 -0.550000 15.99940
5967 OM 5967 OM OM1 5967 -0.550000 15.99940
5968 OM 5968 OM OM1 5968 -0.550000 15.99940
5969 OM 5969 OM OM1 5969 -0.550000 15.99940
5970 OM 5970 OM OM1 5970 -0.550000 15.99940
5971 OM 5971 OM OM1 5971 -0.550000 15.99940
5972 OM 5972 OM OM1 5972 -0.550000 15.99940
5973 OM 5973 OM OM1 5973 -0.550000 15.99940
5974 OM 5974 OM OM1 5974 -0.550000 15.99940
5975 OM 5975 OM OM1 5975 -0.550000 15.99940
5976 OM 5976 OM OM1 5976 -0.550000 15.99940
5977 OM 5977 OM OM1 5977 -0.550000 15.99940
5978 OM 5978 OM OM1 5978 -0.550000 15.99940
5979 OM 5979 OM OM1 5979 -0.550000 15.99940
5980 OM 5980 OM OM1 5980 -0.550000 15.99940
5981 OM 5981 OM OM1 5981 -0.550000 15.99940
5982 OM 5982 OM OM1 5982 -0.550000 15.99940
5983 OM 5983 OM OM1 5983 -0.550000 15.99940
5984 OM 5984 OM OM1 5984 -0.550000 15.99940
5985 OM 5985 OM OM1 5985 -0.550000 15.99940
5986 OM 5986 OM OM1 5986 -0.550000 15.99940
5987 OM 5987 OM OM1 5987 -0.550000 15.99940
5988 OM 5988 OM OM1 5988 -0.550000 15.99940
5989 OM 5989 OM OM1 5989 -0.550000 15.99940
5990 OM 5990 OM OM1 5990 -0.550000 15.99940
5991 OM 5991 OM OM1 5991 -0.550000 15.99940
5992 OM 5992 OM OM1 5992 -0.550000 15.99940
5993 OM 5993 OM OM1 5993 -0.550000 15.99940
5994 OM 5994 OM OM1 5994 -0.550000 15.99940
5995 OM 5995 OM OM1 5995 -0.550000 15.99940
5996 OM 5996 OM OM1 5996 -0.550000 15.99940
5997 OM 5997 OM OM1 5997 -0.550000 15.99940
5998 OM 5998 OM OM1 5998 -0.550000 15.99940
5999 OM 5999 OM OM1 5999 -0.550000 15.99940
6000 OM 6000 OM OM1 6000 -0.550000 15.99940
6001 OM 6001 OM OM1 6001 -0.550000 15.99940
6002 OM 6002 OM OM1 6002 -0.550000 15.99940
6003 OM 6003 OM OM1 6003 -0.550000 15.99940
6004 OM 6004 OM OM1 6004 -0.550000 15.99940
6005 OM 6005 OM OM1 6005 -0.550000 15.99940
6006 OM 6006 OM OM1 6006 -0.550000 15.99940
6007 OM 6007 OM OM1 6007 -0.550000 15.99940
6008 OM 6008 OM OM1 6008 -0.550000 15.99940
6009 OM 6009 OM OM1 6009 -0.550000 15.99940
6010 OM 6010 OM OM1 6010 -0.550000 15.99940
6011 OM 6011 OM OM1 6011 -0.550000 15.99940
6012 OM 6012 OM OM1 6012 -0.550000 15.99940
6013 OM 6013 OM OM1 6013 -0.550000 15.99940
6014 OM 6014 OM OM1 6014 -0.550000 15.99940
6015 OM 6015 OM OM1 6015 -0.550000 15.99940
6016 OM 6016 OM OM1 6016 -0.550000 15.99940
6017 OM 6017 OM OM1 6017 -0.550000 15.99940
6018 OM 6018 OM OM1 6018 -0.550000 15.99940
6019 OM 6019 OM OM1 6019 -0.550000 15.99940
6020 OM 6020 OM OM1 6020 -0.550000 15.99940
6021 OM 6021 OM OM1 6021 -0.550000 15.99940
6022 OM 6022 OM OM1 6022 -0.550000 15.99940
6023 OM 6023 OM OM1 6023 -0.550000 15.99940
6024 OM 6024 OM OM1 6024 -0.550000 15.99940
6025 OM 6025 OM OM1 6025 -0.550000 15.99940
6026 OM 6026 OM OM1 6026 -0.550000 15.99940
6027 OM 6027 OM OM1 6027 -0.550000 15.99940
6028 OM 6028 OM OM1 6028 -0.550000 15.99940
6029 OM 6029 OM OM1 6029 -0.550000 15.99940
6030 OM 6030 OM OM1 6030 -0.550000 15.99940
6031 OM 6031 OM OM1 6031 -0.550000 15.99940
6032 OM 6032 OM OM1 6032 -0.550000 15.99940
6033 OM 6033 OM OM1 6033 -0.550000 15.99940
6034 OM 6034 OM OM1 6034 -0.550000 15.99940
6035 OM 6035 OM OM1 6035 -0.550000 15.99940
6036 OM 6036 OM OM1 6036 -0.550000 15.99940
6037 OM 6037 OM OM1 6037 -0.550000 15.99940
6038 OM 6038 OM OM1 6038 -0.550000 15.99940
6039 OM 6039 OM OM1 6039 -0.550000 15.99940
6040 OM 6040 OM OM1 6040 -0.550000 15.99940
6041 OM 6041 OM OM1 6041 -0.550000 15.99940
6042 OM 6042 OM OM1 6042 -0.550000 15.99940
6043 OM 6043 OM OM1 6043 -0.550000 15.99940
6044 OM 6044 OM OM1 6044 -0.550000 15.99940
6045 OM 6045 OM OM1 6045 -0.550000 15.99940
6046 OM 6046 OM OM1 6046 -0.550000 15.99940
6047 OM 6047 OM OM1 6047 -0.550000 15.99940
6048 OM 6048 OM OM1 6048 -0.550000 15.99940
6049 OM 6049 OM OM1 6049 -0.550000 15.99940
6050 OM 6050 OM OM1 6050 -0.550000 15.99940
6051 OM 6051 OM OM1 6051 -0.550000 15.99940
6052 OM 6052 OM OM1 6052 -0.550000 15.99940
6053 OM 6053 OM OM1 6053 -0.550000 15.99940
6054 OM 6054 OM OM1 6054 -0.550000 15.99940
6055 OM 6055 OM OM1 6055 -0.550000 15.99940
6056 OM 6056 OM OM1 6056 -0.550000 15.99940
6057 OM 6057 OM OM1 6057 -0.550000 15.99940
6058 OM 6058 OM OM1 6058 -0.550000 15.99940
6059 OM 6059 OM OM1 6059 -0.550000 15.99940
6060 OM 6060 OM OM1 6060 -0.550000 15.99940
6061 OM 6061 OM OM1 6061 -0.550000 15.99940
6062 OM 6062 OM OM1 6062 -0.550000 15.99940
6063 OM 6063 OM OM1 6063 -0.550000 15.99940
6064 OM 6064 OM OM1 6064 -0.550000 15.99940
6065 OM 6065 OM OM1 6065 -0.550000 15.99940
6066 OM 6066 OM OM1 6066 -0.550000 15.99940
6067 OM 6067 OM OM1 6067 -0.550000 15.99940
6068 OM 6068 OM OM1 6068 -0.550000 15.99940
6069 OM 6069 OM OM1 6069 -0.550000 15.99940
6070 OM 6070 OM OM1 6070 -0.550000 15.99940
6071 OM 6071 OM OM1 6071 -0.550000 15.99940
6072 OM 6072 OM OM1 6072 -0.550000 15.99940
6073 OM 6073 OM OM1 6073 -0.550000 15.99940
6074 OM 6074 OM OM1 6074 -0.550000 15.99940
6075 OM 6075 OM OM1 6075 -0.550000 15.99940
6076 OM 6076 OM OM1 6076 -0.550000 15.99940
6077 OM 6077 OM OM1 6077 -0.550000 15.99940
6078 OM 6078 OM OM1 6078 -0.550000 15.99940
6079 OM 6079 OM OM1 6079 -0.550000 15.99940
6080 OM 6080 OM OM1 6080 -0.550000 15.99940
6081 OM 6081 OM OM1 6081 -0.550000 15.99940
6082 OM 6082 OM OM1 6082 -0.550000 15.99940
6083 OM 6083 OM OM1 6083 -0.550000 15.99940
6084 OM 6084 OM OM1 6084 -0.550000 15.99940
6085 OM 6085 OM OM1 6085 -0.550000 15.99940
6086 OM 6086 OM OM1 6086 -0.550000 15.99940
6087 OM 6087 OM OM1 6087 -0.550000 15.99940
6088 OM 6088 OM OM1 6088 -0.550000 15.99940
6089 OM 6089 OM OM1 6089 -0.550000 15.99940
6090 OM 6090 OM OM1 6090 -0.550000 15.99940
6091 OM 6091 OM OM1 6091 -0.550000 15.99940
6092 OM 6092 OM OM1 6092 -0.550000 15.99940
6093 OM 6093 OM OM1 6093 -0.550000 15.99940
6094 OM 6094 OM OM1 6094 -0.550000 15.99940
6095 OM 6095 OM OM1 6095 -0.550000 15.99940
6096 OM 6096 OM OM1 6096 -0.550000 15.99940
6097 OM 6097 OM OM1 6097 -0.550000 15.99940
6098 OM 6098 OM OM1 6098 -0.550000 15.99940
6099 OM 6099 OM OM1 6099 -0.550000 15.99940
6100 OM 6100 OM OM1 6100 -0.550000 15.99940
6101 OM 6101 OM OM1 6101 -0.550000 15.99940
6102 OM 6102 OM OM1 6102 -0.550000 15.99940
6103 OM 6103 OM OM1 6103 -0.550000 15.99940
6104 OM 6104 OM OM1 6104 -0.550000 15.99940
6105 OM 6105 OM OM1 6105 -0.550000 15.99940
6106 OM 6106 OM OM1 6106 -0.550000 15.99940
6107 OM 6107 OM OM1 6107 -0.550000 15.99940
6108 OM 6108 OM OM1 6108 -0.550000 15.99940
6109 OM 6109 OM OM1 6109 -0.550000 15.99940
6110 OM 6110 OM OM1 6110 -0.550000 15.99940
6111 OM 6111 OM OM1 6111 -0.550000 15.99940
6112 OM 6112 OM OM1 6112 -0.550000 15.99940
6113 OM 6113 OM OM1 6113 -0.550000 15.99940
6114 OM 6114 OM OM1 6114 -0.550000 15.99940
6115 OM 6115 OM OM1 6115 -0.550000 15.99940
6116 OM 6116 OM OM1 6116 -0.550000 15.99940
6117 OM 6117 OM OM1 6117 -0.550000 15.99940
6118 OM 6118 OM OM1 6118 -0.550000 15.99940
6119 OM 6119 OM OM1 6119 -0.550000 15.99940
6120 OM 6120 OM OM1 6120 -0.550000 15.99940
6121 OM 6121 OM OM1 6121 -0.550000 15.99940
6122 OM 6122 OM OM1 6122 -0.550000 15.99940
6123 OM 6123 OM OM1 6123 -0.550000 15.99940
6124 OM 6124 OM OM1 6124 -0.550000 15.99940
6125 OM 6125 OM OM1 6125 -0.550000 15.99940
6126 OM 6126 OM OM1 6126 -0.550000 15.99940
6127 OM 6127 OM OM1 6127 -0.550000 15.99940
6128 OM 6128 OM OM1 6128 -0.550000 15.99940
6129 OM 6129 OM OM1 6129 -0.550000 15.99940
6130 OM 6130 OM OM1 6130 -0.550000 15.99940
6131 OM 6131 OM OM1 6131 -0.550000 15.99940
6132 OM 6132 OM OM1 6132 -0.550000 15.99940
6133 OM 6133 OM OM1 6133 -0.550000 15.99940
6134 OM 6134 OM OM1 6134 -0.550000 15.99940
6135 OM 6135 OM OM1 6135 -0.550000 15.99940
6136 OM 6136 OM OM1 6136 -0.550000 15.99940
6137 OM 6137 OM OM1 6137 -0.550000 15.99940
6138 OM 6138 OM OM1 6138 -0.550000 15.99940
6139 OM 6139 OM OM1 6139 -0.550000 15.99940
6140 OM 6140 OM OM1 6140 -0.550000 15.99940
6141 OM 6141 OM OM1 6141 -0.550000 15.99940
6142 OM 6142 OM OM1 6142 -0.550000 15.99940
6143 OM 6143 OM OM1 6143 -0.550000 15.99940
6144 OM 6144 OM OM1 6144 -0.550000 15.99940
6145 OM 6145 OM OM1 6145 -0.550000 15.99940
6146 OM 6146 OM OM1 6146 -0.550000 15.99940
6147 OM 6147 OM OM1 6147 -0.550000 15.99940
6148 OM 6148 OM OM1 6148 -0.550000 15.99940
6149 OM 6149 OM OM1 6149 -0.550000 15.99940
6150 OM 6150 OM OM1 6150 -0.550000 15.99940
6151 OM 6151 OM OM1 6151 -0.550000 15.99940
6152 OM 6152 OM OM1 6152 -0.550000 15.99940
6153 OM 6153 OM OM1 6153 -0.550000 15.99940
6154 OM 6154 OM OM1 6154 -0.550000 15.99940
6155 OM 6155 OM OM1 6155 -0.550000 15.99940
6156 OM 6156 OM OM1 6156 -0.550000 15.99940
6157 OM 6157 OM OM1 6157 -0.550000 15.99940
6158 OM 6158 OM OM1 6158 -0.550000 15.99940
6159 OM 6159 OM OM1 6159 -0.550000 15.99940
6160 OM 6160 OM OM1 6160 -0.550000 15.99940
6161 OM 6161 OM OM1 6161 -0.550000 15.99940
6162 OM 6162 OM OM1 6162 -0.550000 15.99940
6163 OM 6163 OM OM1 6163 -0.550000 15.99940
6164 OM 6164 OM OM1 6164 -0.550000 15.99940
6165 OM 6165 OM OM1 6165 -0.550000 15.99940
6166 OM 6166 OM OM1 6166 -0.550000 15.99940
6167 OM 6167 OM OM1 6167 -0.550000 15.99940
6168 OM 6168 OM OM1 6168 -0.550000 15.99940
6169 OM 6169 OM OM1 6169 -0.550000 15.99940
6170 OM 6170 OM OM1 6170 -0.550000 15.99940
6171 OM 6171 OM OM1 6171 -0.550000 15.99940
6172 OM 6172 OM OM1 6172 -0.550000 15.99940
6173 OM 6173 OM OM1 6173 -0.550000 15.99940
6174 OM 6174 OM OM1 6174 -0.550000 15.99940
6175 OM 6175 OM OM1 6175 -0.550000 15.99940
6176 OM 6176 OM OM1 6176 -0.550000 15.99940
6177 OM 6177 OM OM1 6177 -0.550000 15.99940
6178 OM 6178 OM OM1 6178 -0.550000 15.99940
6179 OM 6179 OM OM1 6179 -0.550000 15.99940
6180 OM 6180 OM OM1 6180 -0.550000 15.99940
6181 OM 6181 OM OM1 6181 -0.550000 15.99940
6182 OM 6182 OM OM1 6182 -0.550000 15.99940
6183 OM 6183 OM OM1 6183 -0.550000 15.99940
6184 OM 6184 OM OM1 6184 -0.550000 15.99940
6185 OM 6185 OM OM1 6185 -0.550000 15.99940
6186 OM 6186 OM OM1 6186 -0.550000 15.99940
6187 OM 6187 OM OM1 6187 -0.550000 15.99940
6188 OM 6188 OM OM1 6188 -0.550000 15.99940
6189 OM 6189 OM OM1 6189 -0.550000 15.99940
6190 OM 6190 OM OM1 6190 -0.550000 15.99940
6191 OM 6191 OM OM1 6191 -0.550000 15.99940
6192 OM 6192 OM OM1 6192 -0.550000 15.99940
6193 OM 6193 OM OM1 6193 -0.550000 15.99940
6194 OM 6194 OM OM1 6194 -0.550000 15.99940
6195 OM 6195 OM OM1 6195 -0.550000 15.99940
6196 OM 6196 OM OM1 6196 -0.550000 15.99940
6197 OM 6197 OM OM1 6197 -0.550000 15.99940
6198 OM 6198 OM OM1 6198 -0.550000 15.99940
6199 OM 6199 OM OM1 6199 -0.550000 15.99940
6200 OM 6200 OM OM1 6200 -0.550000 15.99940
6201 OM 6201 OM OM1 6201 -0.550000 15.99940
6202 OM 6202 OM OM1 6202 -0.550000 15.99940
6203 OM 6203 OM OM1 6203 -0.550000 15.99940
6204 OM 6204 OM OM1 6204 -0.550000 15.99940
6205 OM 6205 OM OM1 6205 -0.550000 15.99940
6206 OM 6206 OM OM1 6206 -0.550000 15.99940
6207 OM 6207 OM OM1 6207 -0.550000 15.99940
6208 OM 6208 OM OM1 6208 -0.550000 15.99940
6209 OM 6209 OM OM1 6209 -0.550000 15.99940
6210 OM 6210 OM OM1 6210 -0.550000 15.99940
6211 OM 6211 OM OM1 6211 -0.550000 15.99940
6212 OM 6212 OM OM1 6212 -0.550000 15.99940
6213 OM 6213 OM OM1 6213 -0.550000 15.99940
6214 OM 6214 OM OM1 6214 -0.550000 15.99940
6215 OM 6215 OM OM1 6215 -0.550000 15.99940
6216 OM 6216 OM OM1 6216 -0.550000 15.99940
6217 OM 6217 OM OM1 6217 -0.550000 15.99940
6218 OM 6218 OM OM1 6218 -0.550000 15.99940
6219 OM 6219 OM OM1 6219 -0.550000 15.99940
6220 OM 6220 OM OM1 6220 -0.550000 15.99940
6221 OM 6221 OM OM1 6221 -0.550000 15.99940
6222 OM 6222 OM OM1 6222 -0.550000 15.99940
6223 OM 6223 OM OM1 6223 -0.550000 15.99940
6224 OM 6224 OM OM1 6224 -0.550000 15.99940
6225 OM 6225 OM OM1 6225 -0.550000 15.99940
6226 OM 6226 OM OM1 6226 -0.550000 15.99940
6227 OM 6227 OM OM1 6227 -0.550000 15.99940
6228 OM 6228 OM OM1 6228 -0.550000 15.99940
6229 OM 6229 OM OM1 6229 -0.550000 15.99940
6230 OM 6230 OM OM1 6230 -0.550000 15.99940
6231 OM 6231 OM OM1 6231 -0.550000 15.99940
6232 OM 6232 OM OM1 6232 -0.550000 15.99940
6233 OM 6233 OM OM1 6233 -0.550000 15.99940
6234 OM 6234 OM OM1 6234 -0.550000 15.99940
6235 OM 6235 OM OM1 6235 -0.550000 15.99940
6236 OM 6236 OM OM1 6236 -0.550000 15.99940
6237 OM 6237 OM OM1 6237 -0.550000 15.99940
6238 OM 6238 OM OM1 6238 -0.550000 15.99940
6239 OM 6239 OM OM1 6239 -0.550000 15.99940
6240 OM 6240 OM OM1 6240 -0.550000 15.99940
6241 OM 6241 OM OM1 6241 -0.550000 15.99940
6242 OM 6242 OM OM1 6242 -0.550000 15.99940
6243 OM 6243 OM OM1 6243 -0.550000 15.99940
6244 OM 6244 OM OM1 6244 -0.550000 15.99940
6245 OM 6245 OM OM1 6245 -0.550000 15.99940
6246 OM 6246 OM OM1 6246 -0.550000 15.99940
6247 OM 6247 OM OM1 6247 -0.550000 15.99940
6248 OM 6248 OM OM1 6248 -0.550000 15.99940
6249 OM 6249 OM OM1 6249 -0.550000 15.99940
6250 OM 6250 OM OM1 6250 -0.550000 15.99940
6251 OM 6251 OM OM1 6251 -0.550000 15.99940
6252 OM 6252 OM OM1 6252 -0.550000 15.99940
6253 OM 6253 OM OM1 6253 -0.550000 15.99940
6254 OM 6254 OM OM1 6254 -0.550000 15.99940
6255 OM 6255 OM OM1 6255 -0.550000 15.99940
6256 OM 6256 OM OM1 6256 -0.550000 15.99940
6257 OM 6257 OM OM1 6257 -0.550000 15.99940
6258 OM 6258 OM OM1 6258 -0.550000 15.99940
6259 OM 6259 OM OM1 6259 -0.550000 15.99940
6260 OM 6260 OM OM1 6260 -0.550000 15.99940
6261 OM 6261 OM OM1 6261 -0.550000 15.99940
6262 OM 6262 OM OM1 6262 -0.550000 15.99940
6263 OM 6263 OM OM1 6263 -0.550000 15.99940
6264 OM 6264 OM OM1 6264 -0.550000 15.99940
6265 OM 6265 OM OM1 6265 -0.550000 15.99940
6266 OM 6266 OM OM1 6266 -0.550000 15.99940
6267 OM 6267 OM OM1 6267 -0.550000 15.99940
6268 OM 6268 OM OM1 6268 -0.550000 15.99940
6269 OM 6269 OM OM1 6269 -0.550000 15.99940
6270 OM 6270 OM OM1 6270 -0.550000 15.99940
6271 OM 6271 OM OM1 6271 -0.550000 15.99940
6272 OM 6272 OM OM1 6272 -0.550000 15.99940
6273 OM 6273 OM OM1 6273 -0.550000 15.99940
6274 OM 6274 OM OM1 6274 -0.550000 15.99940
6275 OM 6275 OM OM1 6275 -0.550000 15.99940
6276 OM 6276 OM OM1 6276 -0.550000 15.99940
6277 OM 6277 OM OM1 6277 -0.550000 15.99940
6278 OM 6278 OM OM1 6278 -0.550000 15.99940
6279 OM 6279 OM OM1 6279 -0.550000 15.99940
6280 OM 6280 OM OM1 6280 -0.550000 15.99940
6281 OM 6281 OM OM1 6281 -0.550000 15.99940
6282 OM 6282 OM OM1 6282 -0.550000 15.99940
6283 OM 6283 OM OM1 6283 -0.550000 15.99940
6284 OM 6284 OM OM1 6284 -0.550000 15.99940
6285 OM 6285 OM OM1 6285 -0.550000 15.99940
6286 OM 6286 OM OM1 6286 -0.550000 15.99940
6287 OM 6287 OM OM1 6287 -0.550000 15.99940
6288 OM 6288 OM OM1 6288 -0.550000 15.99940
6289 OM 6289 OM OM1 6289 -0.550000 15.99940
6290 OM 6290 OM OM1 6290 -0.550000 15.99940
6291 OM 6291 OM OM1 6291 -0.550000 15.99940
6292 OM 6292 OM OM1 6292 -0.550000 15.99940
6293 OM 6293 OM OM1 6293 -0.550000 15.99940
6294 OM 6294 OM OM1 6294 -0.550000 15.99940
6295 OM 6295 OM OM1 6295 -0.550000 15.99940
6296 OM 6296 OM OM1 6296 -0.550000 15.99940
6297 OM 6297 OM OM1 6297 -0.550000 15.99940
6298 OM 6298 OM OM1 6298 -0.550000 15.99940
6299 OM 6299 OM OM1 6299 -0.550000 15.99940
6300 OM 6300 OM OM1 6300 -0.550000 15.99940
6301 OM 6301 OM OM1 6301 -0.550000 15.99940
6302 OM 6302 OM OM1 6302 -0.550000 15.99940
6303 OM 6303 OM OM1 6303 -0.550000 15.99940
6304 OM 6304 OM OM1 6304 -0.550000 15.99940
6305 OM 6305 OM OM1 6305 -0.550000 15.99940
6306 OM 6306 OM OM1 6306 -0.550000 15.99940
6307 OM 6307 OM OM1 6307 -0.550000 15.99940
6308 OM 6308 OM OM1 6308 -0.550000 15.99940
6309 OM 6309 OM OM1 6309 -0.550000 15.99940
6310 OM 6310 OM OM1 6310 -0.550000 15.99940
6311 OM 6311 OM OM1 6311 -0.550000 15.99940
6312 OM 6312 OM OM1 6312 -0.550000 15.99940
6313 OM 6313 OM OM1 6313 -0.550000 15.99940
6314 OM 6314 OM OM1 6314 -0.550000 15.99940
6315 OM 6315 OM OM1 6315 -0.550000 15.99940
6316 OM 6316 OM OM1 6316 -0.550000 15.99940
6317 OM 6317 OM OM1 6317 -0.550000 15.99940
6318 OM 6318 OM OM1 6318 -0.550000 15.99940
6319 OM 6319 OM OM1 6319 -0.550000 15.99940
6320 OM 6320 OM OM1 6320 -0.550000 15.99940
6321 OM 6321 OM OM1 6321 -0.550000 15.99940
6322 OM 6322 OM OM1 6322 -0.550000 15.99940
6323 OM 6323 OM OM1 6323 -0.550000 15.99940
6324 OM 6324 OM OM1 6324 -0.550000 15.99940
6325 OM 6325 OM OM1 6325 -0.550000 15.99940
6326 OM 6326 OM OM1 6326 -0.550000 15.99940
6327 OM 6327 OM OM1 6327 -0.550000 15.99940
6328 OM 6328 OM OM1 6328 -0.550000 15.99940
6329 OM 6329 OM OM1 6329 -0.550000 15.99940
6330 OM 6330 OM OM1 6330 -0.550000 15.99940
6331 OM 6331 OM OM1 6331 -0.550000 15.99940
6332 OM 6332 OM OM1 6332 -0.550000 15.99940
6333 OM 6333 OM OM1 6333 -0.550000 15.99940
6334 OM 6334 OM OM1 6334 -0.550000 15.99940
6335 OM 6335 OM OM1 6335 -0.550000 15.99940
6336 OM 6336 OM OM1 6336 -0.550000 15.99940
6337 OM 6337 OM OM1 6337 -0.550000 15.99940
6338 OM 6338 OM OM1 6338 -0.550000 15.99940
6339 OM 6339 OM OM1 6339 -0.550000 15.99940
6340 OM 6340 OM OM1 6340 -0.550000 15.99940
6341 OM 6341 OM OM1 6341 -0.550000 15.99940
6342 OM 6342 OM OM1 6342 -0.550000 15.99940
6343 OM 6343 OM OM1 6343 -0.550000 15.99940
6344 OM 6344 OM OM1 6344 -0.550000 15.99940
6345 OM 6345 OM OM1 6345 -0.550000 15.99940
6346 OM 6346 OM OM1 6346 -0.550000 15.99940
6347 OM 6347 OM OM1 6347 -0.550000 15.99940
6348 OM 6348 OM OM1 6348 -0.550000 15.99940
6349 OM 6349 OM OM1 6349 -0.550000 15.99940
6350 OM 6350 OM OM1 6350 -0.550000 15.99940
6351 OM 6351 OM OM1 6351 -0.550000 15.99940
6352 OM 6352 OM OM1 6352 -0.550000 15.99940
6353 OM 6353 OM OM1 6353 -0.550000 15.99940
6354 OM 6354 OM OM1 6354 -0.550000 15.99940
6355 OM 6355 OM OM1 6355 -0.550000 15.99940
6356 OM 6356 OM OM1 6356 -0.550000 15.99940
6357 OM 6357 OM OM1 6357 -0.550000 15.99940
6358 OM 6358 OM OM1 6358 -0.550000 15.99940
6359 OM 6359 OM OM1 6359 -0.550000 15.99940
6360 OM 6360 OM OM1 6360 -0.550000 15.99940
6361 OM 6361 OM OM1 6361 -0.550000 15.99940
6362 OM 6362 OM OM1 6362 -0.550000 15.99940
6363 OM 6363 OM OM1 6363 -0.550000 15.99940
6364 OM 6364 OM OM1 6364 -0.550000 15.99940
6365 OM 6365 OM OM1 6365 -0.550000 15.99940
6366 OM 6366 OM OM1 6366 -0.550000 15.99940
6367 OM 6367 OM OM1 6367 -0.550000 15.99940
6368 OM 6368 OM OM1 6368 -0.550000 15.99940
6369 OM 6369 OM OM1 6369 -0.550000 15.99940
6370 OM 6370 OM OM1 6370 -0.550000 15.99940
6371 OM 6371 OM OM1 6371 -0.550000 15.99940
6372 OM 6372 OM OM1 6372 -0.550000 15.99940
6373 OM 6373 OM OM1 6373 -0.550000 15.99940
6374 OM 6374 OM OM1 6374 -0.550000 15.99940
6375 OM 6375 OM OM1 6375 -0.550000 15.99940
6376 OM 6376 OM OM1 6376 -0.550000 15.99940
6377 OM 6377 OM OM1 6377 -0.550000 15.99940
6378 OM 6378 OM OM1 6378 -0.550000 15.99940
6379 OM 6379 OM OM1 6379 -0.550000 15.99940
6380 OM 6380 OM OM1 6380 -0.550000 15.99940
6381 OM 6381 OM OM1 6381 -0.550000 15.99940
6382 OM 6382 OM OM1 6382 -0.550000 15.99940
6383 OM 6383 OM OM1 6383 -0.550000 15.99940
6384 OM 6384 OM OM1 6384 -0.550000 15.99940
6385 OM 6385 OM OM1 6385 -0.550000 15.99940
6386 OM 6386 OM OM1 6386 -0.550000 15.99940
6387 OM 6387 OM OM1 6387 -0.550000 15.99940
6388 OM 6388 OM OM1 6388 -0.550000 15.99940
6389 OM 6389 OM OM1 6389 -0.550000 15.99940
6390 OM 6390 OM OM1 6390 -0.550000 15.99940
6391 OM 6391 OM OM1 6391 -0.550000 15.99940
6392 OM 6392 OM OM1 6392 -0.550000 15.99940
6393 OM 6393 OM OM1 6393 -0.550000 15.99940
6394 OM 6394 OM OM1 6394 -0.550000 15.99940
6395 OM 6395 OM OM1 6395 -0.550000 15.99940
6396 OM 6396 OM OM1 6396 -0.550000 15.99940
6397 OM 6397 OM OM1 6397 -0.550000 15.99940
6398 OM 6398 OM OM1 6398 -0.550000 15.99940
6399 OM 6399 OM OM1 6399 -0.550000 15.99940
6400 OM 6400 OM OM1 6400 -0.550000 15.99940
6401 OM 6401 OM OM1 6401 -0.550000 15.99940
6402 OM 6402 OM OM1 6402 -0.550000 15.99940
6403 OM 6403 OM OM1 6403 -0.550000 15.99940
6404 OM 6404 OM OM1 6404 -0.550000 15.99940
6405 OM 6405 OM OM1 6405 -0.550000 15.99940
6406 OM 6406 OM OM1 6406 -0.550000 15.99940
6407 OM 6407 OM OM1 6407 -0.550000 15.99940
6408 OM 6408 OM OM1 6408 -0.550000 15.99940
6409 OM 6409 OM OM1 6409 -0.550000 15.99940
6410 OM 6410 OM OM1 6410 -0.550000 15.99940
6411 OM 6411 OM OM1 6411 -0.550000 15.99940
6412 OM 6412 OM OM1 6412 -0.550000 15.99940
6413 OM 6413 OM OM1 6413 -0.550000 15.99940
6414 OM 6414 OM OM1 6414 -0.550000 15.99940
6415 OM 6415 OM OM1 6415 -0.550000 15.99940
6416 OM 6416 OM OM1 6416 -0.550000 15.99940
6417 OM 6417 OM OM1 6417 -0.550000 15.99940
6418 OM 6418 OM OM1 6418 -0.550000 15.99940
6419 OM 6419 OM OM1 6419 -0.550000 15.99940
6420 OM 6420 OM OM1 6420 -0.550000 15.99940
6421 OM 6421 OM OM1 6421 -0.550000 15.99940
6422 OM 6422 OM OM1 6422 -0.550000 15.99940
6423 OM 6423 OM OM1 6423 -0.550000 15.99940
6424 OM 6424 OM OM1 6424 -0.550000 15.99940
6425 OM 6425 OM OM1 6425 -0.550000 15.99940
6426 OM 6426 OM OM1 6426 -0.550000 15.99940
6427 OM 6427 OM OM1 6427 -0.550000 15.99940
6428 OM 6428 OM OM1 6428 -0.550000 15.99940
6429 OM 6429 OM OM1 6429 -0.550000 15.99940
6430 OM 6430 OM OM1 6430 -0.550000 15.99940
6431 OM 6431 OM OM1 6431 -0.550000 15.99940
6432 OM 6432 OM OM1 6432 -0.550000 15.99940
6433 OM 6433 OM OM1 6433 -0.550000 15.99940
6434 OM 6434 OM OM1 6434 -0.550000 15.99940
6435 OM 6435 OM OM1 6435 -0.550000 15.99940
6436 OM 6436 OM OM1 6436 -0.550000 15.99940
6437 OM 6437 OM OM1 6437 -0.550000 15.99940
6438 OM 6438 OM OM1 6438 -0.550000 15.99940
6439 OM 6439 OM OM1 6439 -0.550000 15.99940
6440 OM 6440 OM OM1 6440 -0.550000 15.99940
6441 OM 6441 OM OM1 6441 -0.550000 15.99940
6442 OM 6442 OM OM1 6442 -0.550000 15.99940
6443 OM 6443 OM OM1 6443 -0.550000 15.99940
6444 OM 6444 OM OM1 6444 -0.550000 15.99940
6445 OM 6445 OM OM1 6445 -0.550000 15.99940
6446 OM 6446 OM OM1 6446 -0.550000 15.99940
6447 OM 6447 OM OM1 6447 -0.550000 15.99940
6448 OM 6448 OM OM1 6448 -0.550000 15.99940
6449 OM 6449 OM OM1 6449 -0.550000 15.99940
6450 OM 6450 OM OM1 6450 -0.550000 15.99940
6451 OM 6451 OM OM1 6451 -0.550000 15.99940
6452 OM 6452 OM OM1 6452 -0.550000 15.99940
6453 OM 6453 OM OM1 6453 -0.550000 15.99940
6454 OM 6454 OM OM1 6454 -0.550000 15.99940
6455 OM 6455 OM OM1 6455 -0.550000 15.99940
6456 OM 6456 OM OM1 6456 -0.550000 15.99940
6457 OM 6457 OM OM1 6457 -0.550000 15.99940
6458 OM 6458 OM OM1 6458 -0.550000 15.99940
6459 OM 6459 OM OM1 6459 -0.550000 15.99940
6460 OM 6460 OM OM1 6460 -0.550000 15.99940
6461 OM 6461 OM OM1 6461 -0.550000 15.99940
6462 OM 6462 OM OM1 6462 -0.550000 15.99940
6463 OM 6463 OM OM1 6463 -0.550000 15.99940
6464 OM 6464 OM OM1 6464 -0.550000 15.99940
6465 OM 6465 OM OM1 6465 -0.550000 15.99940
6466 OM 6466 OM OM1 6466 -0.550000 15.99940
6467 OM 6467 OM OM1 6467 -0.550000 15.99940
6468 OM 6468 OM OM1 6468 -0.550000 15.99940
6469 OM 6469 OM OM1 6469 -0.550000 15.99940
6470 OM 6470 OM OM1 6470 -0.550000 15.99940
6471 OM 6471 OM OM1 6471 -0.550000 15.99940
6472 OM 6472 OM OM1 6472 -0.550000 15.99940
6473 OM 6473 OM OM1 6473 -0.550000 15.99940
6474 OM 6474 OM OM1 6474 -0.550000 15.99940
6475 OM 6475 OM OM1 6475 -0.550000 15.99940
6476 OM 6476 OM OM1 6476 -0.550000 15.99940
6477 OM 6477 OM OM1 6477 -0.550000 15.99940
6478 OM 6478 OM OM1 6478 -0.550000 15.99940
6479 OM 6479 OM OM1 6479 -0.550000 15.99940
6480 OM 6480 OM OM1 6480 -0.550000 15.99940
6481 OM 6481 OM OM1 6481 -0.550000 15.99940
6482 OM 6482 OM OM1 6482 -0.550000 15.99940
6483 OM 6483 OM OM1 6483 -0.550000 15.99940
6484 OM 6484 OM OM1 6484 -0.550000 15.99940
6485 OM 6485 OM OM1 6485 -0.550000 15.99940
6486 OM 6486 OM OM1 6486 -0.550000 15.99940
6487 OM 6487 OM OM1 6487 -0.550000 15.99940
6488 OM 6488 OM OM1 6488 -0.550000 15.99940
6489 OM 6489 OM OM1 6489 -0.550000 15.99940
6490 OM 6490 OM OM1 6490 -0.550000 15.99940
6491 OM 6491 OM OM1 6491 -0.550000 15.99940
6492 OM 6492 OM OM1 6492 -0.550000 15.99940
6493 OM 6493 OM OM1 6493 -0.550000 15.99940
6494 OM 6494 OM OM1 6494 -0.550000 15.99940
6495 OM 6495 OM OM1 6495 -0.550000 15.99940
6496 OM 6496 OM OM1 6496 -0.550000 15.99940
6497 OM 6497 OM OM1 6497 -0.550000 15.99940
6498 OM 6498 OM OM1 6498 -0.550000 15.99940
6499 OM 6499 OM OM1 6499 -0.550000 15.99940
6500 OM 6500 OM OM1 6500 -0.550000 15.99940
6501 OM 6501 OM OM1 6501 -0.550000 15.99940
6502 OM 6502 OM OM1 6502 -0.550000 15.99940
6503 OM 6503 OM OM1 6503 -0.550000 15.99940
6504 OM 6504 OM OM1 6504 -0.550000 15.99940
6505 OM 6505 OM OM1 6505 -0.550000 15.99940
6506 OM 6506 OM OM1 6506 -0.550000 15.99940
6507 OM 6507 OM OM1 6507 -0.550000 15.99940
6508 OM 6508 OM OM1 6508 -0.550000 15.99940
6509 OM 6509 OM OM1 6509 -0.550000 15.99940
6510 OM 6510 OM OM1 6510 -0.550000 15.99940
6511 OM 6511 OM OM1 6511 -0.550000 15.99940
6512 OM 6512 OM OM1 6512 -0.550000 15.99940
6513 OM 6513 OM OM1 6513 -0.550000 15.99940
6514 OM 6514 OM OM1 6514 -0.550000 15.99940
6515 OM 6515 OM OM1 6515 -0.550000 15.99940
6516 OM 6516 OM OM1 6516 -0.550000 15.99940
6517 OM 6517 OM OM1 6517 -0.550000 15.99940
6518 OM 6518 OM OM1 6518 -0.550000 15.99940
6519 OM 6519 OM OM1 6519 -0.550000 15.99940
6520 OM 6520 OM OM1 6520 -0.550000 15.99940
6521 OM 6521 OM OM1 6521 -0.550000 15.99940
6522 OM 6522 OM OM1 6522 -0.550000 15.99940
6523 OM 6523 OM OM1 6523 -0.550000 15.99940
6524 OM 6524 OM OM1 6524 -0.550000 15.99940
6525 OM 6525 OM OM1 6525 -0.550000 15.99940
6526 OM 6526 OM OM1 6526 -0.550000 15.99940
6527 OM 6527 OM OM1 6527 -0.550000 15.99940
6528 OM 6528 OM OM1 6528 -0.550000 15.99940
6529 OM 6529 OM OM1 6529 -0.550000 15.99940
6530 OM 6530 OM OM1 6530 -0.550000 15.99940
6531 OM 6531 OM OM1 6531 -0.550000 15.99940
6532 OM 6532 OM OM1 6532 -0.550000 15.99940
6533 OM 6533 OM OM1 6533 -0.550000 15.99940
6534 OM 6534 OM OM1 6534 -0.550000 15.99940
6535 OM 6535 OM OM1 6535 -0.550000 15.99940
6536 OM 6536 OM OM1 6536 -0.550000 15.99940
6537 OM 6537 OM OM1 6537 -0.550000 15.99940
6538 OM 6538 OM OM1 6538 -0.550000 15.99940
6539 OM 6539 OM OM1 6539 -0.550000 15.99940
6540 OM 6540 OM OM1 6540 -0.550000 15.99940
6541 OM 6541 OM OM1 6541 -0.550000 15.99940
6542 OM 6542 OM OM1 6542 -0.550000 15.99940
6543 OM 6543 OM OM1 6543 -0.550000 15.99940
6544 OM 6544 OM OM1 6544 -0.550000 15.99940
6545 OM 6545 OM OM1 6545 -0.550000 15.99940
6546 OM 6546 OM OM1 6546 -0.550000 15.99940
6547 OM 6547 OM OM1 6547 -0.550000 15.99940
6548 OM 6548 OM OM1 6548 -0.550000 15.99940
6549 OM 6549 OM OM1 6549 -0.550000 15.99940
6550 OM 6550 OM OM1 6550 -0.550000 15.99940
6551 OM 6551 OM OM1 6551 -0.550000 15.99940
6552 OM 6552 OM OM1 6552 -0.550000 15.99940
6553 OM 6553 OM OM1 6553 -0.550000 15.99940
6554 OM 6554 OM OM1 6554 -0.550000 15.99940
6555 OM 6555 OM OM1 6555 -0.550000 15.99940
6556 OM 6556 OM OM1 6556 -0.550000 15.99940
6557 OM 6557 OM OM1 6557 -0.550000 15.99940
6558 OM 6558 OM OM1 6558 -0.550000 15.99940
6559 OM 6559 OM OM1 6559 -0.550000 15.99940
6560 OM 6560 OM OM1 6560 -0.550000 15.99940
6561 OM 6561 OM OM1 6561 -0.550000 15.99940
6562 OM 6562 OM OM1 6562 -0.550000 15.99940
6563 OM 6563 OM OM1 6563 -0.550000 15.99940
6564 OM 6564 OM OM1 6564 -0.550000 15.99940
6565 OM 6565 OM OM1 6565 -0.550000 15.99940
6566 OM 6566 OM OM1 6566 -0.550000 15.99940
6567 OM 6567 OM OM1 6567 -0.550000 15.99940
6568 OM 6568 OM OM1 6568 -0.550000 15.99940
6569 OM 6569 OM OM1 6569 -0.550000 15.99940
6570 OM 6570 OM OM1 6570 -0.550000 15.99940
6571 OM 6571 OM OM1 6571 -0.550000 15.99940
6572 OM 6572 OM OM1 6572 -0.550000 15.99940
6573 OM 6573 OM OM1 6573 -0.550000 15.99940
6574 OM 6574 OM OM1 6574 -0.550000 15.99940
6575 OM 6575 OM OM1 6575 -0.550000 15.99940
6576 OM 6576 OM OM1 6576 -0.550000 15.99940
6577 OM 6577 OM OM1 6577 -0.550000 15.99940
6578 OM 6578 OM OM1 6578 -0.550000 15.99940
6579 OM 6579 OM OM1 6579 -0.550000 15.99940
6580 OM 6580 OM OM1 6580 -0.550000 15.99940
6581 OM 6581 OM OM1 6581 -0.550000 15.99940
6582 OM 6582 OM OM1 6582 -0.550000 15.99940
6583 OM 6583 OM OM1 6583 -0.550000 15.99940
6584 OM 6584 OM OM1 6584 -0.550000 15.99940
6585 OM 6585 OM OM1 6585 -0.550000 15.99940
6586 OM 6586 OM OM1 6586 -0.550000 15.99940
6587 OM 6587 OM OM1 6587 -0.550000 15.99940
6588 OM 6588 OM OM1 6588 -0.550000 15.99940
6589 OM 6589 OM OM1 6589 -0.550000 15.99940
6590 OM 6590 OM OM1 6590 -0.550000 15.99940
6591 OM 6591 OM OM1 6591 -0.550000 15.99940
6592 OM 6592 OM OM1 6592 -0.550000 15.99940
6593 OM 6593 OM OM1 6593 -0.550000 15.99940
6594 OM 6594 OM OM1 6594 -0.550000 15.99940
6595 OM 6595 OM OM1 6595 -0.550000 15.99940
6596 OM 6596 OM OM1 6596 -0.550000 15.99940
6597 OM 6597 OM OM1 6597 -0.550000 15.99940
6598 OM 6598 OM OM1 6598 -0.550000 15.99940
6599 OM 6599 OM OM1 6599 -0.550000 15.99940
6600 OM 6600 OM OM1 6600 -0.550000 15.99940
6601 OM 6601 OM OM1 6601 -0.550000 15.99940
6602 OM 6602 OM OM1 6602 -0.550000 15.99940
6603 OM 6603 OM OM1 6603 -0.550000 15.99940
6604 OM 6604 OM OM1 6604 -0.550000 15.99940
6605 OM 6605 OM OM1 6605 -0.550000 15.99940
6606 OM 6606 OM OM1 6606 -0.550000 15.99940
6607 OM 6607 OM OM1 6607 -0.550000 15.99940
6608 OM 6608 OM OM1 6608 -0.550000 15.99940
6609 OM 6609 OM OM1 6609 -0.550000 15.99940
6610 OM 6610 OM OM1 6610 -0.550000 15.99940
6611 OM 6611 OM OM1 6611 -0.550000 15.99940
6612 OM 6612 OM OM1 6612 -0.550000 15.99940
6613 OM 6613 OM OM1 6613 -0.550000 15.99940
6614 OM 6614 OM OM1 6614 -0.550000 15.99940
6615 OM 6615 OM OM1 6615 -0.550000 15.99940
6616 OM 6616 OM OM1 6616 -0.550000 15.99940
6617 OM 6617 OM OM1 6617 -0.550000 15.99940
6618 OM 6618 OM OM1 6618 -0.550000 15.99940
6619 OM 6619 OM OM1 6619 -0.550000 15.99940
6620 OM 6620 OM OM1 6620 -0.550000 15.99940
6621 OM 6621 OM OM1 6621 -0.550000 15.99940
6622 OM 6622 OM OM1 6622 -0.550000 15.99940
6623 OM 6623 OM OM1 6623 -0.550000 15.99940
6624 OM 6624 OM OM1 6624 -0.550000 15.99940
6625 OM 6625 OM OM1 6625 -0.550000 15.99940
6626 OM 6626 OM OM1 6626 -0.550000 15.99940
6627 OM 6627 OM OM1 6627 -0.550000 15.99940
6628 OM 6628 OM OM1 6628 -0.550000 15.99940
6629 OM 6629 OM OM1 6629 -0.550000 15.99940
6630 OM 6630 OM OM1 6630 -0.550000 15.99940
6631 OM 6631 OM OM1 6631 -0.550000 15.99940
6632 OM 6632 OM OM1 6632 -0.550000 15.99940
6633 OM 6633 OM OM1 6633 -0.550000 15.99940
6634 OM 6634 OM OM1 6634 -0.550000 15.99940
6635 OM 6635 OM OM1 6635 -0.550000 15.99940
6636 OM 6636 OM OM1 6636 -0.550000 15.99940
6637 OM 6637 OM OM1 6637 -0.550000 15.99940
6638 OM 6638 OM OM1 6638 -0.550000 15.99940
6639 OM 6639 OM OM1 6639 -0.550000 15.99940
6640 OM 6640 OM OM1 6640 -0.550000 15.99940
6641 OM 6641 OM OM1 6641 -0.550000 15.99940
6642 OM 6642 OM OM1 6642 -0.550000 15.99940
6643 OM 6643 OM OM1 6643 -0.550000 15.99940
6644 OM 6644 OM OM1 6644 -0.550000 15.99940
6645 OM 6645 OM OM1 6645 -0.550000 15.99940
6646 OM 6646 OM OM1 6646 -0.550000 15.99940
6647 OM 6647 OM OM1 6647 -0.550000 15.99940
6648 OM 6648 OM OM1 6648 -0.550000 15.99940
6649 OM 6649 OM OM1 6649 -0.550000 15.99940
6650 OM 6650 OM OM1 6650 -0.550000 15.99940
6651 OM 6651 OM OM1 6651 -0.550000 15.99940
6652 OM 6652 OM OM1 6652 -0.550000 15.99940
6653 OM 6653 OM OM1 6653 -0.550000 15.99940
6654 OM 6654 OM OM1 6654 -0.550000 15.99940
6655 OM 6655 OM OM1 6655 -0.550000 15.99940
6656 OM 6656 OM OM1 6656 -0.550000 15.99940
6657 OM 6657 OM OM1 6657 -0.550000 15.99940
6658 OM 6658 OM OM1 6658 -0.550000 15.99940
6659 OM 6659 OM OM1 6659 -0.550000 15.99940
6660 OM 6660 OM OM1 6660 -0.550000 15.99940
6661 OM 6661 OM OM1 6661 -0.550000 15.99940
6662 OM 6662 OM OM1 6662 -0.550000 15.99940
6663 OM 6663 OM OM1 6663 -0.550000 15.99940
6664 OM 6664 OM OM1 6664 -0.550000 15.99940
6665 OM 6665 OM OM1 6665 -0.550000 15.99940
6666 OM 6666 OM OM1 6666 -0.550000 15.99940
6667 OM 6667 OM OM1 6667 -0.550000 15.99940
6668 OM 6668 OM OM1 6668 -0.550000 15.99940
6669 OM 6669 OM OM1 6669 -0.550000 15.99940
6670 OM 6670 OM OM1 6670 -0.550000 15.99940
6671 OM 6671 OM OM1 6671 -0.550000 15.99940
6672 OM 6672 OM OM1 6672 -0.550000 15.99940
6673 OM 6673 OM OM1 6673 -0.550000 15.99940
6674 OM 6674 OM OM1 6674 -0.550000 15.99940
6675 OM 6675 OM OM1 6675 -0.550000 15.99940
6676 OM 6676 OM OM1 6676 -0.550000 15.99940
6677 OM 6677 OM OM1 6677 -0.550000 15.99940
6678 OM 6678 OM OM1 6678 -0.550000 15.99940
6679 OM 6679 OM OM1 6679 -0.550000 15.99940
6680 OM 6680 OM OM1 6680 -0.550000 15.99940
6681 OM 6681 OM OM1 6681 -0.550000 15.99940
6682 OM 6682 OM OM1 6682 -0.550000 15.99940
6683 OM 6683 OM OM1 6683 -0.550000 15.99940
6684 OM 6684 OM OM1 6684 -0.550000 15.99940
6685 OM 6685 OM OM1 6685 -0.550000 15.99940
6686 OM 6686 OM OM1 6686 -0.550000 15.99940
6687 OM 6687 OM OM1 6687 -0.550000 15.99940
6688 OM 6688 OM OM1 6688 -0.550000 15.99940
6689 OM 6689 OM OM1 6689 -0.550000 15.99940
6690 OM 6690 OM OM1 6690 -0.550000 15.99940
6691 OM 6691 OM OM1 6691 -0.550000 15.99940
6692 OM 6692 OM OM1 6692 -0.550000 15.99940
6693 OM 6693 OM OM1 6693 -0.550000 15.99940
6694 OM 6694 OM OM1 6694 -0.550000 15.99940
6695 OM 6695 OM OM1 6695 -0.550000 15.99940
6696 OM 6696 OM OM1 6696 -0.550000 15.99940
6697 OM 6697 OM OM1 6697 -0.550000 15.99940
6698 OM 6698 OM OM1 6698 -0.550000 15.99940
6699 OM 6699 OM OM1 6699 -0.550000 15.99940
6700 OM 6700 OM OM1 6700 -0.550000 15.99940
6701 OM 6701 OM OM1 6701 -0.550000 15.99940
6702 OM 6702 OM OM1 6702 -0.550000 15.99940
6703 OM 6703 OM OM1 6703 -0.550000 15.99940
6704 OM 6704 OM OM1 6704 -0.550000 15.99940
6705 OM 6705 OM OM1 6705 -0.550000 15.99940
6706 OM 6706 OM OM1 6706 -0.550000 15.99940
6707 OM 6707 OM OM1 6707 -0.550000 15.99940
6708 OM 6708 OM OM1 6708 -0.550000 15.99940
6709 OM 6709 OM OM1 6709 -0.550000 15.99940
6710 OM 6710 OM OM1 6710 -0.550000 15.99940
6711 OM 6711 OM OM1 6711 -0.550000 15.99940
6712 OM 6712 OM OM1 6712 -0.550000 15.99940
6713 OM 6713 OM OM1 6713 -0.550000 15.99940
6714 OM 6714 OM OM1 6714 -0.550000 15.99940
6715 OM 6715 OM OM1 6715 -0.550000 15.99940
6716 OM 6716 OM OM1 6716 -0.550000 15.99940
6717 OM 6717 OM OM1 6717 -0.550000 15.99940
6718 OM 6718 OM OM1 6718 -0.550000 15.99940
6719 OM 6719 OM OM1 6719 -0.550000 15.99940
6720 OM 6720 OM OM1 6720 -0.550000 15.99940
6721 OM 6721 OM OM1 6721 -0.550000 15.99940
6722 OM 6722 OM OM1 6722 -0.550000 15.99940
6723 OM 6723 OM OM1 6723 -0.550000 15.99940
6724 OM 6724 OM OM1 6724 -0.550000 15.99940
6725 OM 6725 OM OM1 6725 -0.550000 15.99940
6726 OM 6726 OM OM1 6726 -0.550000 15.99940
6727 OM 6727 OM OM1 6727 -0.550000 15.99940
6728 OM 6728 OM OM1 6728 -0.550000 15.99940
6729 OM 6729 OM OM1 6729 -0.550000 15.99940
6730 OM 6730 OM OM1 6730 -0.550000 15.99940
6731 OM 6731 OM OM1 6731 -0.550000 15.99940
6732 OM 6732 OM OM1 6732 -0.550000 15.99940
6733 OM 6733 OM OM1 6733 -0.550000 15.99940
6734 OM 6734 OM OM1 6734 -0.550000 15.99940
6735 OM 6735 OM OM1 6735 -0.550000 15.99940
6736 OM 6736 OM OM1 6736 -0.550000 15.99940
6737 OM 6737 OM OM1 6737 -0.550000 15.99940
6738 OM 6738 OM OM1 6738 -0.550000 15.99940
6739 OM 6739 OM OM1 6739 -0.550000 15.99940
6740 OM 6740 OM OM1 6740 -0.550000 15.99940
6741 OM 6741 OM OM1 6741 -0.550000 15.99940
6742 OM 6742 OM OM1 6742 -0.550000 15.99940
6743 OM 6743 OM OM1 6743 -0.550000 15.99940
6744 OM 6744 OM OM1 6744 -0.550000 15.99940
6745 OM 6745 OM OM1 6745 -0.550000 15.99940
6746 OM 6746 OM OM1 6746 -0.550000 15.99940
6747 OM 6747 OM OM1 6747 -0.550000 15.99940
6748 OM 6748 OM OM1 6748 -0.550000 15.99940
6749 OM 6749 OM OM1 6749 -0.550000 15.99940
6750 OM 6750 OM OM1 6750 -0.550000 15.99940
6751 OM 6751 OM OM1 6751 -0.550000 15.99940
6752 OM 6752 OM OM1 6752 -0.550000 15.99940
6753 OM 6753 OM OM1 6753 -0.550000 15.99940
6754 OM 6754 OM OM1 6754 -0.550000 15.99940
6755 OM 6755 OM OM1 6755 -0.550000 15.99940
6756 OM 6756 OM OM1 6756 -0.550000 15.99940
6757 OM 6757 OM OM1 6757 -0.550000 15.99940
6758 OM 6758 OM OM1 6758 -0.550000 15.99940
6759 OM 6759 OM OM1 6759 -0.550000 15.99940
6760 OM 6760 OM OM1 6760 -0.550000 15.99940
6761 OM 6761 OM OM1 6761 -0.550000 15.99940
6762 OM 6762 OM OM1 6762 -0.550000 15.99940
6763 OM 6763 OM OM1 6763 -0.550000 15.99940
6764 OM 6764 OM OM1 6764 -0.550000 15.99940
6765 OM 6765 OM OM1 6765 -0.550000 15.99940
6766 OM 6766 OM OM1 6766 -0.550000 15.99940
6767 OM 6767 OM OM1 6767 -0.550000 15.99940
6768 OM 6768 OM OM1 6768 -0.550000 15.99940
6769 OM 6769 OM OM1 6769 -0.550000 15.99940
6770 OM 6770 OM OM1 6770 -0.550000 15.99940
6771 OM 6771 OM OM1 6771 -0.550000 15.99940
6772 OM 6772 OM OM1 6772 -0.550000 15.99940
6773 OM 6773 OM OM1 6773 -0.550000 15.99940
6774 OM 6774 OM OM1 6774 -0.550000 15.99940
6775 OM 6775 OM OM1 6775 -0.550000 15.99940
6776 OM 6776 OM OM1 6776 -0.550000 15.99940
6777 OM 6777 OM OM1 6777 -0.550000 15.99940
6778 OM 6778 OM OM1 6778 -0.550000 15.99940
6779 OM 6779 OM OM1 6779 -0.550000 15.99940
6780 OM 6780 OM OM1 6780 -0.550000 15.99940
6781 OM 6781 OM OM1 6781 -0.550000 15.99940
6782 OM 6782 OM OM1 6782 -0.550000 15.99940
6783 OM 6783 OM OM1 6783 -0.550000 15.99940
6784 OM 6784 OM OM1 6784 -0.550000 15.99940
6785 OM 6785 OM OM1 6785 -0.550000 15.99940
6786 OM 6786 OM OM1 6786 -0.550000 15.99940
6787 OM 6787 OM OM1 6787 -0.550000 15.99940
6788 OM 6788 OM OM1 6788 -0.550000 15.99940
6789 OM 6789 OM OM1 6789 -0.550000 15.99940
6790 OM 6790 OM OM1 6790 -0.550000 15.99940
6791 OM 6791 OM OM1 6791 -0.550000 15.99940
6792 OM 6792 OM OM1 6792 -0.550000 15.99940
6793 OM 6793 OM OM1 6793 -0.550000 15.99940
6794 OM 6794 OM OM1 6794 -0.550000 15.99940
6795 OM 6795 OM OM1 6795 -0.550000 15.99940
6796 OM 6796 OM OM1 6796 -0.550000 15.99940
6797 OM 6797 OM OM1 6797 -0.550000 15.99940
6798 OM 6798 OM OM1 6798 -0.550000 15.99940
6799 OM 6799 OM OM1 6799 -0.550000 15.99940
6800 OM 6800 OM OM1 6800 -0.550000 15.99940
6801 OM 6801 OM OM1 6801 -0.550000 15.99940
6802 OM 6802 OM OM1 6802 -0.550000 15.99940
6803 OM 6803 OM OM1 6803 -0.550000 15.99940
6804 OM 6804 OM OM1 6804 -0.550000 15.99940
6805 OM 6805 OM OM1 6805 -0.550000 15.99940
6806 OM 6806 OM OM1 6806 -0.550000 15.99940
6807 OM 6807 OM OM1 6807 -0.550000 15.99940
6808 OM 6808 OM OM1 6808 -0.550000 15.99940
6809 OM 6809 OM OM1 6809 -0.550000 15.99940
6810 OM 6810 OM OM1 6810 -0.550000 15.99940
6811 OM 6811 OM OM1 6811 -0.550000 15.99940
6812 OM 6812 OM OM1 6812 -0.550000 15.99940
6813 OM 6813 OM OM1 6813 -0.550000 15.99940
6814 OM 6814 OM OM1 6814 -0.550000 15.99940
6815 OM 6815 OM OM1 6815 -0.550000 15.99940
6816 OM 6816 OM OM1 6816 -0.550000 15.99940
6817 OM 6817 OM OM1 6817 -0.550000 15.99940
6818 OM 6818 OM OM1 6818 -0.550000 15.99940
6819 OM 6819 OM OM1 6819 -0.550000 15.99940
6820 OM 6820 OM OM1 6820 -0.550000 15.99940
6821 OM 6821 OM OM1 6821 -0.550000 15.99940
6822 OM 6822 OM OM1 6822 -0.550000 15.99940
6823 OM 6823 OM OM1 6823 -0.550000 15.99940
6824 OM 6824 OM OM1 6824 -0.550000 15.99940
6825 OM 6825 OM OM1 6825 -0.550000 15.99940
6826 OM 6826 OM OM1 6826 -0.550000 15.99940
6827 OM 6827 OM OM1 6827 -0.550000 15.99940
6828 OM 6828 OM OM1 6828 -0.550000 15.99940
6829 OM 6829 OM OM1 6829 -0.550000 15.99940
6830 OM 6830 OM OM1 6830 -0.550000 15.99940
6831 OM 6831 OM OM1 6831 -0.550000 15.99940
6832 OM 6832 OM OM1 6832 -0.550000 15.99940
6833 OM 6833 OM OM1 6833 -0.550000 15.99940
6834 OM 6834 OM OM1 6834 -0.550000 15.99940
6835 OM 6835 OM OM1 6835 -0.550000 15.99940
6836 OM 6836 OM OM1 6836 -0.550000 15.99940
6837 OM 6837 OM OM1 6837 -0.550000 15.99940
6838 OM 6838 OM OM1 6838 -0.550000 15.99940
6839 OM 6839 OM OM1 6839 -0.550000 15.99940
6840 OM 6840 OM OM1 6840 -0.550000 15.99940
6841 OM 6841 OM OM1 6841 -0.550000 15.99940
6842 OM 6842 OM OM1 6842 -0.550000 15.99940
6843 OM 6843 OM OM1 6843 -0.550000 15.99940
6844 OM 6844 OM OM1 6844 -0.550000 15.99940
6845 OM 6845 OM OM1 6845 -0.550000 15.99940
6846 OM 6846 OM OM1 6846 -0.550000 15.99940
6847 OM 6847 OM OM1 6847 -0.550000 15.99940
6848 OM 6848 OM OM1 6848 -0.550000 15.99940
6849 OM 6849 OM OM1 6849 -0.550000 15.99940
6850 OM 6850 OM OM1 6850 -0.550000 15.99940
6851 OM 6851 OM OM1 6851 -0.550000 15.99940
6852 OM 6852 OM OM1 6852 -0.550000 15.99940
6853 OM 6853 OM OM1 6853 -0.550000 15.99940
6854 OM 6854 OM OM1 6854 -0.550000 15.99940
6855 OM 6855 OM OM1 6855 -0.550000 15.99940
6856 OM 6856 OM OM1 6856 -0.550000 15.99940
6857 OM 6857 OM OM1 6857 -0.550000 15.99940
6858 OM 6858 OM OM1 6858 -0.550000 15.99940
6859 OM 6859 OM OM1 6859 -0.550000 15.99940
6860 OM 6860 OM OM1 6860 -0.550000 15.99940
6861 OM 6861 OM OM1 6861 -0.550000 15.99940
6862 OM 6862 OM OM1 6862 -0.550000 15.99940
6863 OM 6863 OM OM1 6863 -0.550000 15.99940
6864 OM 6864 OM OM1 6864 -0.550000 15.99940
6865 OM 6865 OM OM1 6865 -0.550000 15.99940
6866 OM 6866 OM OM1 6866 -0.550000 15.99940
6867 OM 6867 OM OM1 6867 -0.550000 15.99940
6868 OM 6868 OM OM1 6868 -0.550000 15.99940
6869 OM 6869 OM OM1 6869 -0.550000 15.99940
6870 OM 6870 OM OM1 6870 -0.550000 15.99940
6871 OM 6871 OM OM1 6871 -0.550000 15.99940
6872 OM 6872 OM OM1 6872 -0.550000 15.99940
6873 OM 6873 OM OM1 6873 -0.550000 15.99940
6874 OM 6874 OM OM1 6874 -0.550000 15.99940
6875 OM 6875 OM OM1 6875 -0.550000 15.99940
6876 OM 6876 OM OM1 6876 -0.550000 15.99940
6877 OM 6877 OM OM1 6877 -0.550000 15.99940
6878 OM 6878 OM OM1 6878 -0.550000 15.99940
6879 OM 6879 OM OM1 6879 -0.550000 15.99940
6880 OM 6880 OM OM1 6880 -0.550000 15.99940
6881 OM 6881 OM OM1 6881 -0.550000 15.99940
6882 OM 6882 OM OM1 6882 -0.550000 15.99940
6883 OM 6883 OM OM1 6883 -0.550000 15.99940
6884 OM 6884 OM OM1 6884 -0.550000 15.99940
6885 OM 6885 OM OM1 6885 -0.550000 15.99940
6886 OM 6886 OM OM1 6886 -0.550000 15.99940
6887 OM 6887 OM OM1 6887 -0.550000 15.99940
6888 OM 6888 OM OM1 6888 -0.550000 15.99940
6889 OM 6889 OM OM1 6889 -0.550000 15.99940
6890 OM 6890 OM OM1 6890 -0.550000 15.99940
6891 OM 6891 OM OM1 6891 -0.550000 15.99940
6892 OM 6892 OM OM1 6892 -0.550000 15.99940
6893 OM 6893 OM OM1 6893 -0.550000 15.99940
6894 OM 6894 OM OM1 6894 -0.550000 15.99940
6895 OM 6895 OM OM1 6895 -0.550000 15.99940
6896 OM 6896 OM OM1 6896 -0.550000 15.99940
6897 OM 6897 OM OM1 6897 -0.550000 15.99940
6898 OM 6898 OM OM1 6898 -0.550000 15.99940
6899 OM 6899 OM OM1 6899 -0.550000 15.99940
6900 OM 6900 OM OM1 6900 -0.550000 15.99940
6901 OM 6901 OM OM1 6901 -0.550000 15.99940
6902 OM 6902 OM OM1 6902 -0.550000 15.99940
6903 OM 6903 OM OM1 6903 -0.550000 15.99940
6904 OM 6904 OM OM1 6904 -0.550000 15.99940
6905 OM 6905 OM OM1 6905 -0.550000 15.99940
6906 OM 6906 OM OM1 6906 -0.550000 15.99940
6907 OM 6907 OM OM1 6907 -0.550000 15.99940
6908 OM 6908 OM OM1 6908 -0.550000 15.99940
6909 OM 6909 OM OM1 6909 -0.550000 15.99940
6910 OM 6910 OM OM1 6910 -0.550000 15.99940
6911 OM 6911 OM OM1 6911 -0.550000 15.99940
6912 OM 6912 OM OM1 6912 -0.550000 15.99940
6913 OM 6913 OM OM1 6913 -0.550000 15.99940
6914 OM 6914 OM OM1 6914 -0.550000 15.99940
6915 OM 6915 OM OM1 6915 -0.550000 15.99940
6916 OM 6916 OM OM1 6916 -0.550000 15.99940
6917 OM 6917 OM OM1 6917 -0.550000 15.99940
6918 OM 6918 OM OM1 6918 -0.550000 15.99940
6919 OM 6919 OM OM1 6919 -0.550000 15.99940
6920 OM 6920 OM OM1 6920 -0.550000 15.99940
6921 OM 6921 OM OM1 6921 -0.550000 15.99940
6922 OM 6922 OM OM1 6922 -0.550000 15.99940
6923 OM 6923 OM OM1 6923 -0.550000 15.99940
6924 OM 6924 OM OM1 6924 -0.550000 15.99940
6925 OM 6925 OM OM1 6925 -0.550000 15.99940
6926 OM 6926 OM OM1 6926 -0.550000 15.99940
6927 OM 6927 OM OM1 6927 -0.550000 15.99940
6928 OM 6928 OM OM1 6928 -0.550000 15.99940
6929 OM 6929 OM OM1 6929 -0.550000 15.99940
6930 OM 6930 OM OM1 6930 -0.550000 15.99940
6931 OM 6931 OM OM1 6931 -0.550000 15.99940
6932 OM 6932 OM OM1 6932 -0.550000 15.99940
6933 OM 6933 OM OM1 6933 -0.550000 15.99940
6934 OM 6934 OM OM1 6934 -0.550000 15.99940
6935 OM 6935 OM OM1 6935 -0.550000 15.99940
6936 OM 6936 OM OM1 6936 -0.550000 15.99940
6937 OM 6937 OM OM1 6937 -0.550000 15.99940
6938 OM 6938 OM OM1 6938 -0.550000 15.99940
6939 OM 6939 OM OM1 6939 -0.550000 15.99940
6940 OM 6940 OM OM1 6940 -0.550000 15.99940
6941 OM 6941 OM OM1 6941 -0.550000 15.99940
6942 OM 6942 OM OM1 6942 -0.550000 15.99940
6943 OM 6943 OM OM1 6943 -0.550000 15.99940
6944 OM 6944 OM OM1 6944 -0.550000 15.99940
6945 OM 6945 OM OM1 6945 -0.550000 15.99940
6946 OM 6946 OM OM1 6946 -0.550000 15.99940
6947 OM 6947 OM OM1 6947 -0.550000 15.99940
6948 OM 6948 OM OM1 6948 -0.550000 15.99940
6949 OM 6949 OM OM1 6949 -0.550000 15.99940
6950 OM 6950 OM OM1 6950 -0.550000 15.99940
6951 OM 6951 OM OM1 6951 -0.550000 15.99940
6952 OM 6952 OM OM1 6952 -0.550000 15.99940
6953 OM 6953 OM OM1 6953 -0.550000 15.99940
6954 OM 6954 OM OM1 6954 -0.550000 15.99940
6955 OM 6955 OM OM1 6955 -0.550000 15.99940
6956 OM 6956 OM OM1 6956 -0.550000 15.99940
6957 OM 6957 OM OM1 6957 -0.550000 15.99940
6958 OM 6958 OM OM1 6958 -0.550000 15.99940
6959 OM 6959 OM OM1 6959 -0.550000 15.99940
6960 OM 6960 OM OM1 6960 -0.550000 15.99940
6961 OM 6961 OM OM1 6961 -0.550000 15.99940
6962 OM 6962 OM OM1 6962 -0.550000 15.99940
6963 OM 6963 OM OM1 6963 -0.550000 15.99940
6964 OM 6964 OM OM1 6964 -0.550000 15.99940
6965 OM 6965 OM OM1 6965 -0.550000 15.99940
6966 OM 6966 OM OM1 6966 -0.550000 15.99940
6967 OM 6967 OM OM1 6967 -0.550000 15.99940
6968 OM 6968 OM OM1 6968 -0.550000 15.99940
6969 OM 6969 OM OM1 6969 -0.550000 15.99940
6970 OM 6970 OM OM1 6970 -0.550000 15.99940
6971 OM 6971 OM OM1 6971 -0.550000 15.99940
6972 OM 6972 OM OM1 6972 -0.550000 15.99940
6973 OM 6973 OM OM1 6973 -0.550000 15.99940
6974 OM 6974 OM OM1 6974 -0.550000 15.99940
6975 OM 6975 OM OM1 6975 -0.550000 15.99940
6976 OM 6976 OM OM1 6976 -0.550000 15.99940
6977 OM 6977 OM OM1 6977 -0.550000 15.99940
6978 OM 6978 OM OM1 6978 -0.550000 15.99940
6979 OM 6979 OM OM1 6979 -0.550000 15.99940
6980 OM 6980 OM OM1 6980 -0.550000 15.99940
6981 OM 6981 OM OM1 6981 -0.550000 15.99940
6982 OM 6982 OM OM1 6982 -0.550000 15.99940
6983 OM 6983 OM OM1 6983 -0.550000 15.99940
6984 OM 6984 OM OM1 6984 -0.550000 15.99940
6985 OM 6985 OM OM1 6985 -0.550000 15.99940
6986 OM 6986 OM OM1 6986 -0.550000 15.99940
6987 OM 6987 OM OM1 6987 -0.550000 15.99940
6988 OM 6988 OM OM1 6988 -0.550000 15.99940
6989 OM 6989 OM OM1 6989 -0.550000 15.99940
6990 OM 6990 OM OM1 6990 -0.550000 15.99940
6991 OM 6991 OM OM1 6991 -0.550000 15.99940
6992 OM 6992 OM OM1 6992 -0.550000 15.99940
6993 OM 6993 OM OM1 6993 -0.550000 15.99940
6994 OM 6994 OM OM1 6994 -0.550000 15.99940
6995 OM 6995 OM OM1 6995 -0.550000 15.99940
6996 OM 6996 OM OM1 6996 -0.550000 15.99940
6997 OM 6997 OM OM1 6997 -0.550000 15.99940
6998 OM 6998 OM OM1 6998 -0.550000 15.99940
6999 OM 6999 OM OM1 6999 -0.550000 15.99940
7000 OM 7000 OM OM1 7000 -0.550000 15.99940
7001 OM 7001 OM OM1 7001 -0.550000 15.99940
7002 OM 7002 OM OM1 7002 -0.550000 15.99940
7003 OM 7003 OM OM1 7003 -0.550000 15.99940
7004 OM 7004 OM OM1 7004 -0.550000 15.99940
7005 OM 7005 OM OM1 7005 -0.550000 15.99940
7006 OM 7006 OM OM1 7006 -0.550000 15.99940
7007 OM 7007 OM OM1 7007 -0.550000 15.99940
7008 OM 7008 OM OM1 7008 -0.550000 15.99940
7009 OM 7009 OM OM1 7009 -0.550000 15.99940
7010 OM 7010 OM OM1 7010 -0.550000 15.99940
7011 OM 7011 OM OM1 7011 -0.550000 15.99940
7012 OM 7012 OM OM1 7012 -0.550000 15.99940
7013 OM 7013 OM OM1 7013 -0.550000 15.99940
7014 OM 7014 OM OM1 7014 -0.550000 15.99940
7015 OM 7015 OM OM1 7015 -0.550000 15.99940
7016 OM 7016 OM OM1 7016 -0.550000 15.99940
7017 OM 7017 OM OM1 7017 -0.550000 15.99940
7018 OM 7018 OM OM1 7018 -0.550000 15.99940
7019 OM 7019 OM OM1 7019 -0.550000 15.99940
7020 OM 7020 OM OM1 7020 -0.550000 15.99940
7021 OM 7021 OM OM1 7021 -0.550000 15.99940
7022 OM 7022 OM OM1 7022 -0.550000 15.99940
7023 OM 7023 OM OM1 7023 -0.550000 15.99940
7024 OM 7024 OM OM1 7024 -0.550000 15.99940
7025 OM 7025 OM OM1 7025 -0.550000 15.99940
7026 OM 7026 OM OM1 7026 -0.550000 15.99940
7027 OM 7027 OM OM1 7027 -0.550000 15.99940
7028 OM 7028 OM OM1 7028 -0.550000 15.99940
7029 OM 7029 OM OM1 7029 -0.550000 15.99940
7030 OM 7030 OM OM1 7030 -0.550000 15.99940
7031 OM 7031 OM OM1 7031 -0.550000 15.99940
7032 OM 7032 OM OM1 7032 -0.550000 15.99940
7033 OM 7033 OM OM1 7033 -0.550000 15.99940
7034 OM 7034 OM OM1 7034 -0.550000 15.99940
7035 OM 7035 OM OM1 7035 -0.550000 15.99940
7036 OM 7036 OM OM1 7036 -0.550000 15.99940
7037 OM 7037 OM OM1 7037 -0.550000 15.99940
7038 OM 7038 OM OM1 7038 -0.550000 15.99940
7039 OM 7039 OM OM1 7039 -0.550000 15.99940
7040 OM 7040 OM OM1 7040 -0.550000 15.99940
7041 OM 7041 OM OM1 7041 -0.550000 15.99940
7042 OM 7042 OM OM1 7042 -0.550000 15.99940
7043 OM 7043 OM OM1 7043 -0.550000 15.99940
7044 OM 7044 OM OM1 7044 -0.550000 15.99940
7045 OM 7045 OM OM1 7045 -0.550000 15.99940
7046 OM 7046 OM OM1 7046 -0.550000 15.99940
7047 OM 7047 OM OM1 7047 -0.550000 15.99940
7048 OM 7048 OM OM1 7048 -0.550000 15.99940
7049 OM 7049 OM OM1 7049 -0.550000 15.99940
7050 OM 7050 OM OM1 7050 -0.550000 15.99940
7051 OM 7051 OM OM1 7051 -0.550000 15.99940
7052 OM 7052 OM OM1 7052 -0.550000 15.99940
7053 OM 7053 OM OM1 7053 -0.550000 15.99940
7054 OM 7054 OM OM1 7054 -0.550000 15.99940
7055 OM 7055 OM OM1 7055 -0.550000 15.99940
7056 OM 7056 OM OM1 7056 -0.550000 15.99940
7057 OM 7057 OM OM1 7057 -0.550000 15.99940
7058 OM 7058 OM OM1 7058 -0.550000 15.99940
7059 OM 7059 OM OM1 7059 -0.550000 15.99940
7060 OM 7060 OM OM1 7060 -0.550000 15.99940
7061 OM 7061 OM OM1 7061 -0.550000 15.99940
7062 OM 7062 OM OM1 7062 -0.550000 15.99940
7063 OM 7063 OM OM1 7063 -0.550000 15.99940
7064 OM 7064 OM OM1 7064 -0.550000 15.99940
7065 OM 7065 OM OM1 7065 -0.550000 15.99940
7066 OM 7066 OM OM1 7066 -0.550000 15.99940
7067 OM 7067 OM OM1 7067 -0.550000 15.99940
7068 OM 7068 OM OM1 7068 -0.550000 15.99940
7069 OM 7069 OM OM1 7069 -0.550000 15.99940
7070 OM 7070 OM OM1 7070 -0.550000 15.99940
7071 OM 7071 OM OM1 7071 -0.550000 15.99940
7072 OM 7072 OM OM1 7072 -0.550000 15.99940
7073 OM 7073 OM OM1 7073 -0.550000 15.99940
7074 OM 7074 OM OM1 7074 -0.550000 15.99940
7075 OM 7075 OM OM1 7075 -0.550000 15.99940
7076 OM 7076 OM OM1 7076 -0.550000 15.99940
7077 OM 7077 OM OM1 7077 -0.550000 15.99940
7078 OM 7078 OM OM1 7078 -0.550000 15.99940
7079 OM 7079 OM OM1 7079 -0.550000 15.99940
7080 OM 7080 OM OM1 7080 -0.550000 15.99940
7081 OM 7081 OM OM1 7081 -0.550000 15.99940
7082 OM 7082 OM OM1 7082 -0.550000 15.99940
7083 OM 7083 OM OM1 7083 -0.550000 15.99940
7084 OM 7084 OM OM1 7084 -0.550000 15.99940
7085 OM 7085 OM OM1 7085 -0.550000 15.99940
7086 OM 7086 OM OM1 7086 -0.550000 15.99940
7087 OM 7087 OM OM1 7087 -0.550000 15.99940
7088 OM 7088 OM OM1 7088 -0.550000 15.99940
7089 OM 7089 OM OM1 7089 -0.550000 15.99940
7090 OM 7090 OM OM1 7090 -0.550000 15.99940
7091 OM 7091 OM OM1 7091 -0.550000 15.99940
7092 OM 7092 OM OM1 7092 -0.550000 15.99940
7093 OM 7093 OM OM1 7093 -0.550000 15.99940
7094 OM 7094 OM OM1 7094 -0.550000 15.99940
7095 OM 7095 OM OM1 7095 -0.550000 15.99940
7096 OM 7096 OM OM1 7096 -0.550000 15.99940
7097 OM 7097 OM OM1 7097 -0.550000 15.99940
7098 OM 7098 OM OM1 7098 -0.550000 15.99940
7099 OM 7099 OM OM1 7099 -0.550000 15.99940
7100 OM 7100 OM OM1 7100 -0.550000 15.99940
7101 OM 7101 OM OM1 7101 -0.550000 15.99940
7102 OM 7102 OM OM1 7102 -0.550000 15.99940
7103 OM 7103 OM OM1 7103 -0.550000 15.99940
7104 OM 7104 OM OM1 7104 -0.550000 15.99940
7105 OM 7105 OM OM1 7105 -0.550000 15.99940
7106 OM 7106 OM OM1 7106 -0.550000 15.99940
7107 OM 7107 OM OM1 7107 -0.550000 15.99940
7108 OM 7108 OM OM1 7108 -0.550000 15.99940
7109 OM 7109 OM OM1 7109 -0.550000 15.99940
7110 OM 7110 OM OM1 7110 -0.550000 15.99940
7111 OM 7111 OM OM1 7111 -0.550000 15.99940
7112 OM 7112 OM OM1 7112 -0.550000 15.99940
7113 OM 7113 OM OM1 7113 -0.550000 15.99940
7114 OM 7114 OM OM1 7114 -0.550000 15.99940
7115 OM 7115 OM OM1 7115 -0.550000 15.99940
7116 OM 7116 OM OM1 7116 -0.550000 15.99940
7117 OM 7117 OM OM1 7117 -0.550000 15.99940
7118 OM 7118 OM OM1 7118 -0.550000 15.99940
7119 OM 7119 OM OM1 7119 -0.550000 15.99940
7120 OM 7120 OM OM1 7120 -0.550000 15.99940
7121 OM 7121 OM OM1 7121 -0.550000 15.99940
7122 OM 7122 OM OM1 7122 -0.550000 15.99940
7123 OM 7123 OM OM1 7123 -0.550000 15.99940
7124 OM 7124 OM OM1 7124 -0.550000 15.99940
7125 OM 7125 OM OM1 7125 -0.550000 15.99940
7126 OM 7126 OM OM1 7126 -0.550000 15.99940
7127 OM 7127 OM OM1 7127 -0.550000 15.99940
7128 OM 7128 OM OM1 7128 -0.550000 15.99940
7129 OM 7129 OM OM1 7129 -0.550000 15.99940
7130 OM 7130 OM OM1 7130 -0.550000 15.99940
7131 OM 7131 OM OM1 7131 -0.550000 15.99940
7132 OM 7132 OM OM1 7132 -0.550000 15.99940
7133 OM 7133 OM OM1 7133 -0.550000 15.99940
7134 OM 7134 OM OM1 7134 -0.550000 15.99940
7135 OM 7135 OM OM1 7135 -0.550000 15.99940
7136 OM 7136 OM OM1 7136 -0.550000 15.99940
7137 OM 7137 OM OM1 7137 -0.550000 15.99940
7138 OM 7138 OM OM1 7138 -0.550000 15.99940
7139 OM 7139 OM OM1 7139 -0.550000 15.99940
7140 OM 7140 OM OM1 7140 -0.550000 15.99940
7141 OM 7141 OM OM1 7141 -0.550000 15.99940
7142 OM 7142 OM OM1 7142 -0.550000 15.99940
7143 OM 7143 OM OM1 7143 -0.550000 15.99940
7144 OM 7144 OM OM1 7144 -0.550000 15.99940
7145 OM 7145 OM OM1 7145 -0.550000 15.99940
7146 OM 7146 OM OM1 7146 -0.550000 15.99940
7147 OM 7147 OM OM1 7147 -0.550000 15.99940
7148 OM 7148 OM OM1 7148 -0.550000 15.99940
7149 OM 7149 OM OM1 7149 -0.550000 15.99940
7150 OM 7150 OM OM1 7150 -0.550000 15.99940
7151 OM 7151 OM OM1 7151 -0.550000 15.99940
7152 OM 7152 OM OM1 7152 -0.550000 15.99940
7153 OM 7153 OM OM1 7153 -0.550000 15.99940
7154 OM 7154 OM OM1 7154 -0.550000 15.99940
7155 OM 7155 OM OM1 7155 -0.550000 15.99940
7156 OM 7156 OM OM1 7156 -0.550000 15.99940
7157 OM 7157 OM OM1 7157 -0.550000 15.99940
7158 OM 7158 OM OM1 7158 -0.550000 15.99940
7159 OM 7159 OM OM1 7159 -0.550000 15.99940
7160 OM 7160 OM OM1 7160 -0.550000 15.99940
7161 OM 7161 OM OM1 7161 -0.550000 15.99940
7162 OM 7162 OM OM1 7162 -0.550000 15.99940
7163 OM 7163 OM OM1 7163 -0.550000 15.99940
7164 OM 7164 OM OM1 7164 -0.550000 15.99940
7165 OM 7165 OM OM1 7165 -0.550000 15.99940
7166 OM 7166 OM OM1 7166 -0.550000 15.99940
7167 OM 7167 OM OM1 7167 -0.550000 15.99940
7168 OM 7168 OM OM1 7168 -0.550000 15.99940
7169 OM 7169 OM OM1 7169 -0.550000 15.99940
7170 OM 7170 OM OM1 7170 -0.550000 15.99940
7171 OM 7171 OM OM1 7171 -0.550000 15.99940
7172 OM 7172 OM OM1 7172 -0.550000 15.99940
7173 OM 7173 OM OM1 7173 -0.550000 15.99940
7174 OM 7174 OM OM1 7174 -0.550000 15.99940
7175 OM 7175 OM OM1 7175 -0.550000 15.99940
7176 OM 7176 OM OM1 7176 -0.550000 15.99940
7177 OM 7177 OM OM1 7177 -0.550000 15.99940
7178 OM 7178 OM OM1 7178 -0.550000 15.99940
7179 OM 7179 OM OM1 7179 -0.550000 15.99940
7180 OM 7180 OM OM1 7180 -0.550000 15.99940
7181 OM 7181 OM OM1 7181 -0.550000 15.99940
7182 OM 7182 OM OM1 7182 -0.550000 15.99940
7183 OM 7183 OM OM1 7183 -0.550000 15.99940
7184 OM 7184 OM OM1 7184 -0.550000 15.99940
7185 OM 7185 OM OM1 7185 -0.550000 15.99940
7186 OM 7186 OM OM1 7186 -0.550000 15.99940
7187 OM 7187 OM OM1 7187 -0.550000 15.99940
7188 OM 7188 OM OM1 7188 -0.550000 15.99940
7189 OM 7189 OM OM1 7189 -0.550000 15.99940
7190 OM 7190 OM OM1 7190 -0.550000 15.99940
7191 OM 7191 OM OM1 7191 -0.550000 15.99940
7192 OM 7192 OM OM1 7192 -0.550000 15.99940
7193 OM 7193 OM OM1 7193 -0.550000 15.99940
7194 OM 7194 OM OM1 7194 -0.550000 15.99940
7195 OM 7195 OM OM1 7195 -0.550000 15.99940
7196 OM 7196 OM OM1 7196 -0.550000 15.99940
7197 OM 7197 OM OM1 7197 -0.550000 15.99940
7198 OM 7198 OM OM1 7198 -0.550000 15.99940
7199 OM 7199 OM OM1 7199 -0.550000 15.99940
7200 OM 7200 OM OM1 7200 -0.550000 15.99940
7201 OM 7201 OM OM1 7201 -0.550000 15.99940
7202 OM 7202 OM OM1 7202 -0.550000 15.99940
7203 OM 7203 OM OM1 7203 -0.550000 15.99940
7204 OM 7204 OM OM1 7204 -0.550000 15.99940
7205 OM 7205 OM OM1 7205 -0.550000 15.99940
7206 OM 7206 OM OM1 7206 -0.550000 15.99940
7207 OM 7207 OM OM1 7207 -0.550000 15.99940
7208 OM 7208 OM OM1 7208 -0.550000 15.99940
7209 OM 7209 OM OM1 7209 -0.550000 15.99940
7210 OM 7210 OM OM1 7210 -0.550000 15.99940
7211 OM 7211 OM OM1 7211 -0.550000 15.99940
7212 OM 7212 OM OM1 7212 -0.550000 15.99940
7213 OM 7213 OM OM1 7213 -0.550000 15.99940
7214 OM 7214 OM OM1 7214 -0.550000 15.99940
7215 OM 7215 OM OM1 7215 -0.550000 15.99940
7216 OM 7216 OM OM1 7216 -0.550000 15.99940
7217 OM 7217 OM OM1 7217 -0.550000 15.99940
7218 OM 7218 OM OM1 7218 -0.550000 15.99940
7219 OM 7219 OM OM1 7219 -0.550000 15.99940
7220 OM 7220 OM OM1 7220 -0.550000 15.99940
7221 OM 7221 OM OM1 7221 -0.550000 15.99940
7222 OM 7222 OM OM1 7222 -0.550000 15.99940
7223 OM 7223 OM OM1 7223 -0.550000 15.99940
7224 OM 7224 OM OM1 7224 -0.550000 15.99940
7225 OM 7225 OM OM1 7225 -0.550000 15.99940
7226 OM 7226 OM OM1 7226 -0.550000 15.99940
7227 OM 7227 OM OM1 7227 -0.550000 15.99940
7228 OM 7228 OM OM1 7228 -0.550000 15.99940
7229 OM 7229 OM OM1 7229 -0.550000 15.99940
7230 OM 7230 OM OM1 7230 -0.550000 15.99940
7231 OM 7231 OM OM1 7231 -0.550000 15.99940
7232 OM 7232 OM OM1 7232 -0.550000 15.99940
7233 OM 7233 OM OM1 7233 -0.550000 15.99940
7234 OM 7234 OM OM1 7234 -0.550000 15.99940
7235 OM 7235 OM OM1 7235 -0.550000 15.99940
7236 OM 7236 OM OM1 7236 -0.550000 15.99940
7237 OM 7237 OM OM1 7237 -0.550000 15.99940
7238 OM 7238 OM OM1 7238 -0.550000 15.99940
7239 OM 7239 OM OM1 7239 -0.550000 15.99940
7240 OM 7240 OM OM1 7240 -0.550000 15.99940
7241 OM 7241 OM OM1 7241 -0.550000 15.99940
7242 OM 7242 OM OM1 7242 -0.550000 15.99940
7243 OM 7243 OM OM1 7243 -0.550000 15.99940
7244 OM 7244 OM OM1 7244 -0.550000 15.99940
7245 OM 7245 OM OM1 7245 -0.550000 15.99940
7246 OM 7246 OM OM1 7246 -0.550000 15.99940
7247 OM 7247 OM OM1 7247 -0.550000 15.99940
7248 OM 7248 OM OM1 7248 -0.550000 15.99940
7249 OM 7249 OM OM1 7249 -0.550000 15.99940
7250 OM 7250 OM OM1 7250 -0.550000 15.99940
7251 OM 7251 OM OM1 7251 -0.550000 15.99940
7252 OM 7252 OM OM1 7252 -0.550000 15.99940
7253 OM 7253 OM OM1 7253 -0.550000 15.99940
7254 OM 7254 OM OM1 7254 -0.550000 15.99940
7255 OM 7255 OM OM1 7255 -0.550000 15.99940
7256 OM 7256 OM OM1 7256 -0.550000 15.99940
7257 OM 7257 OM OM1 7257 -0.550000 15.99940
7258 OM 7258 OM OM1 7258 -0.550000 15.99940
7259 OM 7259 OM OM1 7259 -0.550000 15.99940
7260 OM 7260 OM OM1 7260 -0.550000 15.99940
7261 OM 7261 OM OM1 7261 -0.550000 15.99940
7262 OM 7262 OM OM1 7262 -0.550000 15.99940
7263 OM 7263 OM OM1 7263 -0.550000 15.99940
7264 OM 7264 OM OM1 7264 -0.550000 15.99940
7265 OM 7265 OM OM1 7265 -0.550000 15.99940
7266 OM 7266 OM OM1 7266 -0.550000 15.99940
7267 OM 7267 OM OM1 7267 -0.550000 15.99940
7268 OM 7268 OM OM1 7268 -0.550000 15.99940
7269 OM 7269 OM OM1 7269 -0.550000 15.99940
7270 OM 7270 OM OM1 7270 -0.550000 15.99940
7271 OM 7271 OM OM1 7271 -0.550000 15.99940
7272 OM 7272 OM OM1 7272 -0.550000 15.99940
7273 OM 7273 OM OM1 7273 -0.550000 15.99940
7274 OM 7274 OM OM1 7274 -0.550000 15.99940
7275 OM 7275 OM OM1 7275 -0.550000 15.99940
7276 OM 7276 OM OM1 7276 -0.550000 15.99940
7277 OM 7277 OM OM1 7277 -0.550000 15.99940
7278 OM 7278 OM OM1 7278 -0.550000 15.99940
7279 OM 7279 OM OM1 7279 -0.550000 15.99940
7280 OM 7280 OM OM1 7280 -0.550000 15.99940
7281 OM 7281 OM OM1 7281 -0.550000 15.99940
7282 OM 7282 OM OM1 7282 -0.550000 15.99940
7283 OM 7283 OM OM1 7283 -0.550000 15.99940
7284 OM 7284 OM OM1 7284 -0.550000 15.99940
7285 OM 7285 OM OM1 7285 -0.550000 15.99940
7286 OM 7286 OM OM1 7286 -0.550000 15.99940
7287 OM 7287 OM OM1 7287 -0.550000 15.99940
7288 OM 7288 OM OM1 7288 -0.550000 15.99940
7289 OM 7289 OM OM1 7289 -0.550000 15.99940
7290 OM 7290 OM OM1 7290 -0.550000 15.99940
7291 OM 7291 OM OM1 7291 -0.550000 15.99940
7292 OM 7292 OM OM1 7292 -0.550000 15.99940
7293 OM 7293 OM OM1 7293 -0.550000 15.99940
7294 OM 7294 OM OM1 7294 -0.550000 15.99940
7295 OM 7295 OM OM1 7295 -0.550000 15.99940
7296 OM 7296 OM OM1 7296 -0.550000 15.99940
7297 OM 7297 OM OM1 7297 -0.550000 15.99940
7298 OM 7298 OM OM1 7298 -0.550000 15.99940
7299 OM 7299 OM OM1 7299 -0.550000 15.99940
7300 OM 7300 OM OM1 7300 -0.550000 15.99940
7301 OM 7301 OM OM1 7301 -0.550000 15.99940
7302 OM 7302 OM OM1 7302 -0.550000 15.99940
7303 OM 7303 OM OM1 7303 -0.550000 15.99940
7304 OM 7304 OM OM1 7304 -0.550000 15.99940
7305 OM 7305 OM OM1 7305 -0.550000 15.99940
7306 OM 7306 OM OM1 7306 -0.550000 15.99940
7307 OM 7307 OM OM1 7307 -0.550000 15.99940
7308 OM 7308 OM OM1 7308 -0.550000 15.99940
7309 OM 7309 OM OM1 7309 -0.550000 15.99940
7310 OM 7310 OM OM1 7310 -0.550000 15.99940
7311 OM 7311 OM OM1 7311 -0.550000 15.99940
7312 OM 7312 OM OM1 7312 -0.550000 15.99940
7313 OM 7313 OM OM1 7313 -0.550000 15.99940
7314 OM 7314 OM OM1 7314 -0.550000 15.99940
7315 OM 7315 OM OM1 7315 -0.550000 15.99940
7316 OM 7316 OM OM1 7316 -0.550000 15.99940
7317 OM 7317 OM OM1 7317 -0.550000 15.99940
7318 OM 7318 OM OM1 7318 -0.550000 15.99940
7319 OM 7319 OM OM1 7319 -0.550000 15.99940
7320 OM 7320 OM OM1 7320 -0.550000 15.99940
7321 OM 7321 OM OM1 7321 -0.550000 15.99940
7322 OM 7322 OM OM1 7322 -0.550000 15.99940
7323 OM 7323 OM OM1 7323 -0.550000 15.99940
7324 OM 7324 OM OM1 7324 -0.550000 15.99940
7325 OM 7325 OM OM1 7325 -0.550000 15.99940
7326 OM 7326 OM OM1 7326 -0.550000 15.99940
7327 OM 7327 OM OM1 7327 -0.550000 15.99940
7328 OM 7328 OM OM1 7328 -0.550000 15.99940
7329 OM 7329 OM OM1 7329 -0.550000 15.99940
7330 OM 7330 OM OM1 7330 -0.550000 15.99940
7331 OM 7331 OM OM1 7331 -0.550000 15.99940
7332 OM 7332 OM OM1 7332 -0.550000 15.99940
7333 OM 7333 OM OM1 7333 -0.550000 15.99940
7334 OM 7334 OM OM1 7334 -0.550000 15.99940
7335 OM 7335 OM OM1 7335 -0.550000 15.99940
7336 OM 7336 OM OM1 7336 -0.550000 15.99940
7337 OM 7337 OM OM1 7337 -0.550000 15.99940
7338 OM 7338 OM OM1 7338 -0.550000 15.99940
7339 OM 7339 OM OM1 7339 -0.550000 15.99940
7340 OM 7340 OM OM1 7340 -0.550000 15.99940
7341 OM 7341 OM OM1 7341 -0.550000 15.99940
7342 OM 7342 OM OM1 7342 -0.550000 15.99940
7343 OM 7343 OM OM1 7343 -0.550000 15.99940
7344 OM 7344 OM OM1 7344 -0.550000 15.99940
7345 OM 7345 OM OM1 7345 -0.550000 15.99940
7346 OM 7346 OM OM1 7346 -0.550000 15.99940
7347 OM 7347 OM OM1 7347 -0.550000 15.99940
7348 OM 7348 OM OM1 7348 -0.550000 15.99940
7349 OM 7349 OM OM1 7349 -0.550000 15.99940
7350 OM 7350 OM OM1 7350 -0.550000 15.99940
7351 OM 7351 OM OM1 7351 -0.550000 15.99940
7352 OM 7352 OM OM1 7352 -0.550000 15.99940
7353 OM 7353 OM OM1 7353 -0.550000 15.99940
7354 OM 7354 OM OM1 7354 -0.550000 15.99940
7355 OM 7355 OM OM1 7355 -0.550000 15.99940
7356 OM 7356 OM OM1 7356 -0.550000 15.99940
7357 OM 7357 OM OM1 7357 -0.550000 15.99940
7358 OM 7358 OM OM1 7358 -0.550000 15.99940
7359 OM 7359 OM OM1 7359 -0.550000 15.99940
7360 OM 7360 OM OM1 7360 -0.550000 15.99940
7361 OM 7361 OM OM1 7361 -0.550000 15.99940
7362 OM 7362 OM OM1 7362 -0.550000 15.99940
7363 OM 7363 OM OM1 7363 -0.550000 15.99940
7364 OM 7364 OM OM1 7364 -0.550000 15.99940
7365 OM 7365 OM OM1 7365 -0.550000 15.99940
7366 OM 7366 OM OM1 7366 -0.550000 15.99940
7367 OM 7367 OM OM1 7367 -0.550000 15.99940
7368 OM 7368 OM OM1 7368 -0.550000 15.99940
7369 OM 7369 OM OM1 7369 -0.550000 15.99940
7370 OM 7370 OM OM1 7370 -0.550000 15.99940
7371 OM 7371 OM OM1 7371 -0.550000 15.99940
7372 OM 7372 OM OM1 7372 -0.550000 15.99940
7373 OM 7373 OM OM1 7373 -0.550000 15.99940
7374 OM 7374 OM OM1 7374 -0.550000 15.99940
7375 OM 7375 OM OM1 7375 -0.550000 15.99940
7376 OM 7376 OM OM1 7376 -0.550000 15.99940
7377 OM 7377 OM OM1 7377 -0.550000 15.99940
7378 OM 7378 OM OM1 7378 -0.550000 15.99940
7379 OM 7379 OM OM1 7379 -0.550000 15.99940
7380 OM 7380 OM OM1 7380 -0.550000 15.99940
7381 OM 7381 OM OM1 7381 -0.550000 15.99940
7382 OM 7382 OM OM1 7382 -0.550000 15.99940
7383 OM 7383 OM OM1 7383 -0.550000 15.99940
7384 OM 7384 OM OM1 7384 -0.550000 15.99940
7385 OM 7385 OM OM1 7385 -0.550000 15.99940
7386 OM 7386 OM OM1 7386 -0.550000 15.99940
7387 OM 7387 OM OM1 7387 -0.550000 15.99940
7388 OM 7388 OM OM1 7388 -0.550000 15.99940
7389 OM 7389 OM OM1 7389 -0.550000 15.99940
7390 OM 7390 OM OM1 7390 -0.550000 15.99940
7391 OM 7391 OM OM1 7391 -0.550000 15.99940
7392 OM 7392 OM OM1 7392 -0.550000 15.99940
7393 OM 7393 OM OM1 7393 -0.550000 15.99940
7394 OM 7394 OM OM1 7394 -0.550000 15.99940
7395 OM 7395 OM OM1 7395 -0.550000 15.99940
7396 OM 7396 OM OM1 7396 -0.550000 15.99940
7397 OM 7397 OM OM1 7397 -0.550000 15.99940
7398 OM 7398 OM OM1 7398 -0.550000 15.99940
7399 OM 7399 OM OM1 7399 -0.550000 15.99940
7400 OM 7400 OM OM1 7400 -0.550000 15.99940
7401 OM 7401 OM OM1 7401 -0.550000 15.99940
7402 OM 7402 OM OM1 7402 -0.550000 15.99940
7403 OM 7403 OM OM1 7403 -0.550000 15.99940
7404 OM 7404 OM OM1 7404 -0.550000 15.99940
7405 OM 7405 OM OM1 7405 -0.550000 15.99940
7406 OM 7406 OM OM1 7406 -0.550000 15.99940
7407 OM 7407 OM OM1 7407 -0.550000 15.99940
7408 OM 7408 OM OM1 7408 -0.550000 15.99940
7409 OM 7409 OM OM1 7409 -0.550000 15.99940
7410 OM 7410 OM OM1 7410 -0.550000 15.99940
7411 OM 7411 OM OM1 7411 -0.550000 15.99940
7412 OM 7412 OM OM1 7412 -0.550000 15.99940
7413 OM 7413 OM OM1 7413 -0.550000 15.99940
7414 OM 7414 OM OM1 7414 -0.550000 15.99940
7415 OM 7415 OM OM1 7415 -0.550000 15.99940
7416 OM 7416 OM OM1 7416 -0.550000 15.99940
7417 OM 7417 OM OM1 7417 -0.550000 15.99940
7418 OM 7418 OM OM1 7418 -0.550000 15.99940
7419 OM 7419 OM OM1 7419 -0.550000 15.99940
7420 OM 7420 OM OM1 7420 -0.550000 15.99940
7421 OM 7421 OM OM1 7421 -0.550000 15.99940
7422 OM 7422 OM OM1 7422 -0.550000 15.99940
7423 OM 7423 OM OM1 7423 -0.550000 15.99940
7424 OM 7424 OM OM1 7424 -0.550000 15.99940
7425 OM 7425 OM OM1 7425 -0.550000 15.99940
7426 OM 7426 OM OM1 7426 -0.550000 15.99940
7427 OM 7427 OM OM1 7427 -0.550000 15.99940
7428 OM 7428 OM OM1 7428 -0.550000 15.99940
7429 OM 7429 OM OM1 7429 -0.550000 15.99940
7430 OM 7430 OM OM1 7430 -0.550000 15.99940
7431 OM 7431 OM OM1 7431 -0.550000 15.99940
7432 OM 7432 OM OM1 7432 -0.550000 15.99940
7433 OM 7433 OM OM1 7433 -0.550000 15.99940
7434 OM 7434 OM OM1 7434 -0.550000 15.99940
7435 OM 7435 OM OM1 7435 -0.550000 15.99940
7436 OM 7436 OM OM1 7436 -0.550000 15.99940
7437 OM 7437 OM OM1 7437 -0.550000 15.99940
7438 OM 7438 OM OM1 7438 -0.550000 15.99940
7439 OM 7439 OM OM1 7439 -0.550000 15.99940
7440 OM 7440 OM OM1 7440 -0.550000 15.99940
7441 OM 7441 OM OM1 7441 -0.550000 15.99940
7442 OM 7442 OM OM1 7442 -0.550000 15.99940
7443 OM 7443 OM OM1 7443 -0.550000 15.99940
7444 OM 7444 OM OM1 7444 -0.550000 15.99940
7445 OM 7445 OM OM1 7445 -0.550000 15.99940
7446 OM 7446 OM OM1 7446 -0.550000 15.99940
7447 OM 7447 OM OM1 7447 -0.550000 15.99940
7448 OM 7448 OM OM1 7448 -0.550000 15.99940
7449 OM 7449 OM OM1 7449 -0.550000 15.99940
7450 OM 7450 OM OM1 7450 -0.550000 15.99940
7451 OM 7451 OM OM1 7451 -0.550000 15.99940
7452 OM 7452 OM OM1 7452 -0.550000 15.99940
7453 OM 7453 OM OM1 7453 -0.550000 15.99940
7454 OM 7454 OM OM1 7454 -0.550000 15.99940
7455 OM 7455 OM OM1 7455 -0.550000 15.99940
7456 OM 7456 OM OM1 7456 -0.550000 15.99940
7457 OM 7457 OM OM1 7457 -0.550000 15.99940
7458 OM 7458 OM OM1 7458 -0.550000 15.99940
7459 OM 7459 OM OM1 7459 -0.550000 15.99940
7460 OM 7460 OM OM1 7460 -0.550000 15.99940
7461 OM 7461 OM OM1 7461 -0.550000 15.99940
7462 OM 7462 OM OM1 7462 -0.550000 15.99940
7463 OM 7463 OM OM1 7463 -0.550000 15.99940
7464 OM 7464 OM OM1 7464 -0.550000 15.99940
7465 OM 7465 OM OM1 7465 -0.550000 15.99940
7466 OM 7466 OM OM1 7466 -0.550000 15.99940
7467 OM 7467 OM OM1 7467 -0.550000 15.99940
7468 OM 7468 OM OM1 7468 -0.550000 15.99940
7469 OM 7469 OM OM1 7469 -0.550000 15.99940
7470 OM 7470 OM OM1 7470 -0.550000 15.99940
7471 OM 7471 OM OM1 7471 -0.550000 15.99940
7472 OM 7472 OM OM1 7472 -0.550000 15.99940
7473 OM 7473 OM OM1 7473 -0.550000 15.99940
7474 OM 7474 OM OM1 7474 -0.550000 15.99940
7475 OM 7475 OM OM1 7475 -0.550000 15.99940
7476 OM 7476 OM OM1 7476 -0.550000 15.99940
7477 OM 7477 OM OM1 7477 -0.550000 15.99940
7478 OM 7478 OM OM1 7478 -0.550000 15.99940
7479 OM 7479 OM OM1 7479 -0.550000 15.99940
7480 OM 7480 OM OM1 7480 -0.550000 15.99940
7481 OM 7481 OM OM1 7481 -0.550000 15.99940
7482 OM 7482 OM OM1 7482 -0.550000 15.99940
7483 OM 7483 OM OM1 7483 -0.550000 15.99940
7484 OM 7484 OM OM1 7484 -0.550000 15.99940
7485 OM 7485 OM OM1 7485 -0.550000 15.99940
7486 OM 7486 OM OM1 7486 -0.550000 15.99940
7487 OM 7487 OM OM1 7487 -0.550000 15.99940
7488 OM 7488 OM OM1 7488 -0.550000 15.99940
7489 OM 7489 OM OM1 7489 -0.550000 15.99940
7490 OM 7490 OM OM1 7490 -0.550000 15.99940
7491 OM 7491 OM OM1 7491 -0.550000 15.99940
7492 OM 7492 OM OM1 7492 -0.550000 15.99940
7493 OM 7493 OM OM1 7493 -0.550000 15.99940
7494 OM 7494 OM OM1 7494 -0.550000 15.99940
7495 OM 7495 OM OM1 7495 -0.550000 15.99940
7496 OM 7496 OM OM1 7496 -0.550000 15.99940
7497 OM 7497 OM OM1 7497 -0.550000 15.99940
7498 OM 7498 OM OM1 7498 -0.550000 15.99940
7499 OM 7499 OM OM1 7499 -0.550000 15.99940
7500 OM 7500 OM OM1 7500 -0.550000 15.99940
7501 OM 7501 OM OM1 7501 -0.550000 15.99940
7502 OM 7502 OM OM1 7502 -0.550000 15.99940
7503 OM 7503 OM OM1 7503 -0.550000 15.99940
7504 OM 7504 OM OM1 7504 -0.550000 15.99940
7505 OM 7505 OM OM1 7505 -0.550000 15.99940
7506 OM 7506 OM OM1 7506 -0.550000 15.99940
7507 OM 7507 OM OM1 7507 -0.550000 15.99940
7508 OM 7508 OM OM1 7508 -0.550000 15.99940
7509 OM 7509 OM OM1 7509 -0.550000 15.99940
7510 OM 7510 OM OM1 7510 -0.550000 15.99940
7511 OM 7511 OM OM1 7511 -0.550000 15.99940
7512 OM 7512 OM OM1 7512 -0.550000 15.99940
7513 OM 7513 OM OM1 7513 -0.550000 15.99940
7514 OM 7514 OM OM1 7514 -0.550000 15.99940
7515 OM 7515 OM OM1 7515 -0.550000 15.99940
7516 OM 7516 OM OM1 7516 -0.550000 15.99940
7517 OM 7517 OM OM1 7517 -0.550000 15.99940
7518 OM 7518 OM OM1 7518 -0.550000 15.99940
7519 OM 7519 OM OM1 7519 -0.550000 15.99940
7520 OM 7520 OM OM1 7520 -0.550000 15.99940
7521 OM 7521 OM OM1 7521 -0.550000 15.99940
7522 OM 7522 OM OM1 7522 -0.550000 15.99940
7523 OM 7523 OM OM1 7523 -0.550000 15.99940
7524 OM 7524 OM OM1 7524 -0.550000 15.99940
7525 OM 7525 OM OM1 7525 -0.550000 15.99940
7526 OM 7526 OM OM1 7526 -0.550000 15.99940
7527 OM 7527 OM OM1 7527 -0.550000 15.99940
7528 OM 7528 OM OM1 7528 -0.550000 15.99940
7529 OM 7529 OM OM1 7529 -0.550000 15.99940
7530 OM 7530 OM OM1 7530 -0.550000 15.99940
7531 OM 7531 OM OM1 7531 -0.550000 15.99940
7532 OM 7532 OM OM1 7532 -0.550000 15.99940
7533 OM 7533 OM OM1 7533 -0.550000 15.99940
7534 OM 7534 OM OM1 7534 -0.550000 15.99940
7535 OM 7535 OM OM1 7535 -0.550000 15.99940
7536 OM 7536 OM OM1 7536 -0.550000 15.99940
7537 OM 7537 OM OM1 7537 -0.550000 15.99940
7538 OM 7538 OM OM1 7538 -0.550000 15.99940
7539 OM 7539 OM OM1 7539 -0.550000 15.99940
7540 OM 7540 OM OM1 7540 -0.550000 15.99940
7541 OM 7541 OM OM1 7541 -0.550000 15.99940
7542 OM 7542 OM OM1 7542 -0.550000 15.99940
7543 OM 7543 OM OM1 7543 -0.550000 15.99940
7544 OM 7544 OM OM1 7544 -0.550000 15.99940
7545 OM 7545 OM OM1 7545 -0.550000 15.99940
7546 OM 7546 OM OM1 7546 -0.550000 15.99940
7547 OM 7547 OM OM1 7547 -0.550000 15.99940
7548 OM 7548 OM OM1 7548 -0.550000 15.99940
7549 OM 7549 OM OM1 7549 -0.550000 15.99940
7550 OM 7550 OM OM1 7550 -0.550000 15.99940
7551 OM 7551 OM OM1 7551 -0.550000 15.99940
7552 OM 7552 OM OM1 7552 -0.550000 15.99940
7553 OM 7553 OM OM1 7553 -0.550000 15.99940
7554 OM 7554 OM OM1 7554 -0.550000 15.99940
7555 OM 7555 OM OM1 7555 -0.550000 15.99940
7556 OM 7556 OM OM1 7556 -0.550000 15.99940
7557 OM 7557 OM OM1 7557 -0.550000 15.99940
7558 OM 7558 OM OM1 7558 -0.550000 15.99940
7559 OM 7559 OM OM1 7559 -0.550000 15.99940
7560 OM 7560 OM OM1 7560 -0.550000 15.99940
7561 OM 7561 OM OM1 7561 -0.550000 15.99940
7562 OM 7562 OM OM1 7562 -0.550000 15.99940
7563 OM 7563 OM OM1 7563 -0.550000 15.99940
7564 OM 7564 OM OM1 7564 -0.550000 15.99940
7565 OM 7565 OM OM1 7565 -0.550000 15.99940
7566 OM 7566 OM OM1 7566 -0.550000 15.99940
7567 OM 7567 OM OM1 7567 -0.550000 15.99940
7568 OM 7568 OM OM1 7568 -0.550000 15.99940
7569 OM 7569 OM OM1 7569 -0.550000 15.99940
7570 OM 7570 OM OM1 7570 -0.550000 15.99940
7571 OM 7571 OM OM1 7571 -0.550000 15.99940
7572 OM 7572 OM OM1 7572 -0.550000 15.99940
7573 OM 7573 OM OM1 7573 -0.550000 15.99940
7574 OM 7574 OM OM1 7574 -0.550000 15.99940
7575 OM 7575 OM OM1 7575 -0.550000 15.99940
7576 OM 7576 OM OM1 7576 -0.550000 15.99940
7577 OM 7577 OM OM1 7577 -0.550000 15.99940
7578 OM 7578 OM OM1 7578 -0.550000 15.99940
7579 OM 7579 OM OM1 7579 -0.550000 15.99940
7580 OM 7580 OM OM1 7580 -0.550000 15.99940
7581 OM 7581 OM OM1 7581 -0.550000 15.99940
7582 OM 7582 OM OM1 7582 -0.550000 15.99940
7583 OM 7583 OM OM1 7583 -0.550000 15.99940
7584 OM 7584 OM OM1 7584 -0.550000 15.99940
7585 OM 7585 OM OM1 7585 -0.550000 15.99940
7586 OM 7586 OM OM1 7586 -0.550000 15.99940
7587 OM 7587 OM OM1 7587 -0.550000 15.99940
7588 OM 7588 OM OM1 7588 -0.550000 15.99940
7589 OM 7589 OM OM1 7589 -0.550000 15.99940
7590 OM 7590 OM OM1 7590 -0.550000 15.99940
7591 OM 7591 OM OM1 7591 -0.550000 15.99940
7592 OM 7592 OM OM1 7592 -0.550000 15.99940
7593 OM 7593 OM OM1 7593 -0.550000 15.99940
7594 OM 7594 OM OM1 7594 -0.550000 15.99940
7595 OM 7595 OM OM1 7595 -0.550000 15.99940
7596 OM 7596 OM OM1 7596 -0.550000 15.99940
7597 OM 7597 OM OM1 7597 -0.550000 15.99940
7598 OM 7598 OM OM1 7598 -0.550000 15.99940
7599 OM 7599 OM OM1 7599 -0.550000 15.99940
7600 OM 7600 OM OM1 7600 -0.550000 15.99940
7601 OM 7601 OM OM1 7601 -0.550000 15.99940
7602 OM 7602 OM OM1 7602 -0.550000 15.99940
7603 OM 7603 OM OM1 7603 -0.550000 15.99940
7604 OM 7604 OM OM1 7604 -0.550000 15.99940
7605 OM 7605 OM OM1 7605 -0.550000 15.99940
7606 OM 7606 OM OM1 7606 -0.550000 15.99940
7607 OM 7607 OM OM1 7607 -0.550000 15.99940
7608 OM 7608 OM OM1 7608 -0.550000 15.99940
7609 OM 7609 OM OM1 7609 -0.550000 15.99940
7610 OM 7610 OM OM1 7610 -0.550000 15.99940
7611 OM 7611 OM OM1 7611 -0.550000 15.99940
7612 OM 7612 OM OM1 7612 -0.550000 15.99940
7613 OM 7613 OM OM1 7613 -0.550000 15.99940
7614 OM 7614 OM OM1 7614 -0.550000 15.99940
7615 OM 7615 OM OM1 7615 -0.550000 15.99940
7616 OM 7616 OM OM1 7616 -0.550000 15.99940
7617 OM 7617 OM OM1 7617 -0.550000 15.99940
7618 OM 7618 OM OM1 7618 -0.550000 15.99940
7619 OM 7619 OM OM1 7619 -0.550000 15.99940
7620 OM 7620 OM OM1 7620 -0.550000 15.99940
7621 OM 7621 OM OM1 7621 -0.550000 15.99940
7622 OM 7622 OM OM1 7622 -0.550000 15.99940
7623 OM 7623 OM OM1 7623 -0.550000 15.99940
7624 OM 7624 OM OM1 7624 -0.550000 15.99940
7625 OM 7625 OM OM1 7625 -0.550000 15.99940
7626 OM 7626 OM OM1 7626 -0.550000 15.99940
7627 OM 7627 OM OM1 7627 -0.550000 15.99940
7628 OM 7628 OM OM1 7628 -0.550000 15.99940
7629 OM 7629 OM OM1 7629 -0.550000 15.99940
7630 OM 7630 OM OM1 7630 -0.550000 15.99940
7631 OM 7631 OM OM1 7631 -0.550000 15.99940
7632 OM 7632 OM OM1 7632 -0.550000 15.99940
7633 OM 7633 OM OM1 7633 -0.550000 15.99940
7634 OM 7634 OM OM1 7634 -0.550000 15.99940
7635 OM 7635 OM OM1 7635 -0.550000 15.99940
7636 OM 7636 OM OM1 7636 -0.550000 15.99940
7637 OM 7637 OM OM1 7637 -0.550000 15.99940
7638 OM 7638 OM OM1 7638 -0.550000 15.99940
7639 OM 7639 OM OM1 7639 -0.550000 15.99940
7640 OM 7640 OM OM1 7640 -0.550000 15.99940
7641 OM 7641 OM OM1 7641 -0.550000 15.99940
7642 OM 7642 OM OM1 7642 -0.550000 15.99940
7643 OM 7643 OM OM1 7643 -0.550000 15.99940
7644 OM 7644 OM OM1 7644 -0.550000 15.99940
7645 OM 7645 OM OM1 7645 -0.550000 15.99940
7646 OM 7646 OM OM1 7646 -0.550000 15.99940
7647 OM 7647 OM OM1 7647 -0.550000 15.99940
7648 OM 7648 OM OM1 7648 -0.550000 15.99940
7649 OM 7649 OM OM1 7649 -0.550000 15.99940
7650 OM 7650 OM OM1 7650 -0.550000 15.99940
7651 OM 7651 OM OM1 7651 -0.550000 15.99940
7652 OM 7652 OM OM1 7652 -0.550000 15.99940
7653 OM 7653 OM OM1 7653 -0.550000 15.99940
7654 OM 7654 OM OM1 7654 -0.550000 15.99940
7655 OM 7655 OM OM1 7655 -0.550000 15.99940
7656 OM 7656 OM OM1 7656 -0.550000 15.99940
7657 OM 7657 OM OM1 7657 -0.550000 15.99940
7658 OM 7658 OM OM1 7658 -0.550000 15.99940
7659 OM 7659 OM OM1 7659 -0.550000 15.99940
7660 OM 7660 OM OM1 7660 -0.550000 15.99940
7661 OM 7661 OM OM1 7661 -0.550000 15.99940
7662 OM 7662 OM OM1 7662 -0.550000 15.99940
7663 OM 7663 OM OM1 7663 -0.550000 15.99940
7664 OM 7664 OM OM1 7664 -0.550000 15.99940
7665 OM 7665 OM OM1 7665 -0.550000 15.99940
7666 OM 7666 OM OM1 7666 -0.550000 15.99940
7667 OM 7667 OM OM1 7667 -0.550000 15.99940
7668 OM 7668 OM OM1 7668 -0.550000 15.99940
7669 OM 7669 OM OM1 7669 -0.550000 15.99940
7670 OM 7670 OM OM1 7670 -0.550000 15.99940
7671 OM 7671 OM OM1 7671 -0.550000 15.99940
7672 OM 7672 OM OM1 7672 -0.550000 15.99940
7673 OM 7673 OM OM1 7673 -0.550000 15.99940
7674 OM 7674 OM OM1 7674 -0.550000 15.99940
7675 OM 7675 OM OM1 7675 -0.550000 15.99940
7676 OM 7676 OM OM1 7676 -0.550000 15.99940
7677 OM 7677 OM OM1 7677 -0.550000 15.99940
7678 OM 7678 OM OM1 7678 -0.550000 15.99940
7679 OM 7679 OM OM1 7679 -0.550000 15.99940
7680 OM 7680 OM OM1 7680 -0.550000 15.99940
7681 OM 7681 OM OM1 7681 -0.550000 15.99940
7682 OM 7682 OM OM1 7682 -0.550000 15.99940
7683 OM 7683 OM OM1 7683 -0.550000 15.99940
7684 OM 7684 OM OM1 7684 -0.550000 15.99940
7685 OM 7685 OM OM1 7685 -0.550000 15.99940
7686 OM 7686 OM OM1 7686 -0.550000 15.99940
7687 OM 7687 OM OM1 7687 -0.550000 15.99940
7688 OM 7688 OM OM1 7688 -0.550000 15.99940
7689 OM 7689 OM OM1 7689 -0.550000 15.99940
7690 OM 7690 OM OM1 7690 -0.550000 15.99940
7691 OM 7691 OM OM1 7691 -0.550000 15.99940
7692 OM 7692 OM OM1 7692 -0.550000 15.99940
7693 OM 7693 OM OM1 7693 -0.550000 15.99940
7694 OM 7694 OM OM1 7694 -0.550000 15.99940
7695 OM 7695 OM OM1 7695 -0.550000 15.99940
7696 OM 7696 OM OM1 7696 -0.550000 15.99940
7697 OM 7697 OM OM1 7697 -0.550000 15.99940
7698 OM 7698 OM OM1 7698 -0.550000 15.99940
7699 OM 7699 OM OM1 7699 -0.550000 15.99940
7700 OM 7700 OM OM1 7700 -0.550000 15.99940
7701 OM 7701 OM OM1 7701 -0.550000 15.99940
7702 OM 7702 OM OM1 7702 -0.550000 15.99940
7703 OM 7703 OM OM1 7703 -0.550000 15.99940
7704 OM 7704 OM OM1 7704 -0.550000 15.99940
7705 OM 7705 OM OM1 7705 -0.550000 15.99940
7706 OM 7706 OM OM1 7706 -0.550000 15.99940
7707 OM 7707 OM OM1 7707 -0.550000 15.99940
7708 OM 7708 OM OM1 7708 -0.550000 15.99940
7709 OM 7709 OM OM1 7709 -0.550000 15.99940
7710 OM 7710 OM OM1 7710 -0.550000 15.99940
7711 OM 7711 OM OM1 7711 -0.550000 15.99940
7712 OM 7712 OM OM1 7712 -0.550000 15.99940
7713 OM 7713 OM OM1 7713 -0.550000 15.99940
7714 OM 7714 OM OM1 7714 -0.550000 15.99940
7715 OM 7715 OM OM1 7715 -0.550000 15.99940
7716 OM 7716 OM OM1 7716 -0.550000 15.99940
7717 OM 7717 OM OM1 7717 -0.550000 15.99940
7718 OM 7718 OM OM1 7718 -0.550000 15.99940
7719 OM 7719 OM OM1 7719 -0.550000 15.99940
7720 OM 7720 OM OM1 7720 -0.550000 15.99940
7721 OM 7721 OM OM1 7721 -0.550000 15.99940
7722 OM 7722 OM OM1 7722 -0.550000 15.99940
7723 OM 7723 OM OM1 7723 -0.550000 15.99940
7724 OM 7724 OM OM1 7724 -0.550000 15.99940
7725 OM 7725 OM OM1 7725 -0.550000 15.99940
7726 OM 7726 OM OM1 7726 -0.550000 15.99940
7727 OM 7727 OM OM1 7727 -0.550000 15.99940
7728 OM 7728 OM OM1 7728 -0.550000 15.99940
7729 OM 7729 OM OM1 7729 -0.550000 15.99940
7730 OM 7730 OM OM1 7730 -0.550000 15.99940
7731 OM 7731 OM OM1 7731 -0.550000 15.99940
7732 OM 7732 OM OM1 7732 -0.550000 15.99940
7733 OM 7733 OM OM1 7733 -0.550000 15.99940
7734 OM 7734 OM OM1 7734 -0.550000 15.99940
7735 OM 7735 OM OM1 7735 -0.550000 15.99940
7736 OM 7736 OM OM1 7736 -0.550000 15.99940
7737 OM 7737 OM OM1 7737 -0.550000 15.99940
7738 OM 7738 OM OM1 7738 -0.550000 15.99940
7739 OM 7739 OM OM1 7739 -0.550000 15.99940
7740 OM 7740 OM OM1 7740 -0.550000 15.99940
7741 OM 7741 OM OM1 7741 -0.550000 15.99940
7742 OM 7742 OM OM1 7742 -0.550000 15.99940
7743 OM 7743 OM OM1 7743 -0.550000 15.99940
7744 OM 7744 OM OM1 7744 -0.550000 15.99940
7745 OM 7745 OM OM1 7745 -0.550000 15.99940
7746 OM 7746 OM OM1 7746 -0.550000 15.99940
7747 OM 7747 OM OM1 7747 -0.550000 15.99940
7748 OM 7748 OM OM1 7748 -0.550000 15.99940
7749 OM 7749 OM OM1 7749 -0.550000 15.99940
7750 OM 7750 OM OM1 7750 -0.550000 15.99940
7751 OM 7751 OM OM1 7751 -0.550000 15.99940
7752 OM 7752 OM OM1 7752 -0.550000 15.99940
7753 OM 7753 OM OM1 7753 -0.550000 15.99940
7754 OM 7754 OM OM1 7754 -0.550000 15.99940
7755 OM 7755 OM OM1 7755 -0.550000 15.99940
7756 OM 7756 OM OM1 7756 -0.550000 15.99940
7757 OM 7757 OM OM1 7757 -0.550000 15.99940
7758 OM 7758 OM OM1 7758 -0.550000 15.99940
7759 OM 7759 OM OM1 7759 -0.550000 15.99940
7760 OM 7760 OM OM1 7760 -0.550000 15.99940
7761 OM 7761 OM OM1 7761 -0.550000 15.99940
7762 OM 7762 OM OM1 7762 -0.550000 15.99940
7763 OM 7763 OM OM1 7763 -0.550000 15.99940
7764 OM 7764 OM OM1 7764 -0.550000 15.99940
7765 OM 7765 OM OM1 7765 -0.550000 15.99940
7766 OM 7766 OM OM1 7766 -0.550000 15.99940
7767 OM 7767 OM OM1 7767 -0.550000 15.99940
7768 OM 7768 OM OM1 7768 -0.550000 15.99940
7769 OM 7769 OM OM1 7769 -0.550000 15.99940
7770 OM 7770 OM OM1 7770 -0.550000 15.99940
7771 OM 7771 OM OM1 7771 -0.550000 15.99940
7772 OM 7772 OM OM1 7772 -0.550000 15.99940
7773 OM 7773 OM OM1 7773 -0.550000 15.99940
7774 OM 7774 OM OM1 7774 -0.550000 15.99940
7775 OM 7775 OM OM1 7775 -0.550000 15.99940
7776 OM 7776 OM OM1 7776 -0.550000 15.99940
7777 OM 7777 OM OM1 7777 -0.550000 15.99940
7778 OM 7778 OM OM1 7778 -0.550000 15.99940
7779 OM 7779 OM OM1 7779 -0.550000 15.99940
7780 OM 7780 OM OM1 7780 -0.550000 15.99940
7781 OM 7781 OM OM1 7781 -0.550000 15.99940
7782 OM 7782 OM OM1 7782 -0.550000 15.99940
7783 OM 7783 OM OM1 7783 -0.550000 15.99940
7784 OM 7784 OM OM1 7784 -0.550000 15.99940
7785 OM 7785 OM OM1 7785 -0.550000 15.99940
7786 OM 7786 OM OM1 7786 -0.550000 15.99940
7787 OM 7787 OM OM1 7787 -0.550000 15.99940
7788 OM 7788 OM OM1 7788 -0.550000 15.99940
7789 OM 7789 OM OM1 7789 -0.550000 15.99940
7790 OM 7790 OM OM1 7790 -0.550000 15.99940
7791 OM 7791 OM OM1 7791 -0.550000 15.99940
7792 OM 7792 OM OM1 7792 -0.550000 15.99940
7793 OM 7793 OM OM1 7793 -0.550000 15.99940
7794 OM 7794 OM OM1 7794 -0.550000 15.99940
7795 OM 7795 OM OM1 7795 -0.550000 15.99940
7796 OM 7796 OM OM1 7796 -0.550000 15.99940
7797 OM 7797 OM OM1 7797 -0.550000 15.99940
7798 OM 7798 OM OM1 7798 -0.550000 15.99940
7799 OM 7799 OM OM1 7799 -0.550000 15.99940
7800 OM 7800 OM OM1 7800 -0.550000 15.99940
7801 OM 7801 OM OM1 7801 -0.550000 15.99940
7802 OM 7802 OM OM1 7802 -0.550000 15.99940
7803 OM 7803 OM OM1 7803 -0.550000 15.99940
7804 OM 7804 OM OM1 7804 -0.550000 15.99940
7805 OM 7805 OM OM1 7805 -0.550000 15.99940
7806 OM 7806 OM OM1 7806 -0.550000 15.99940
7807 OM 7807 OM OM1 7807 -0.550000 15.99940
7808 OM 7808 OM OM1 7808 -0.550000 15.99940
7809 OM 7809 OM OM1 7809 -0.550000 15.99940
7810 OM 7810 OM OM1 7810 -0.550000 15.99940
7811 OM 7811 OM OM1 7811 -0.550000 15.99940
7812 OM 7812 OM OM1 7812 -0.550000 15.99940
7813 OM 7813 OM OM1 7813 -0.550000 15.99940
7814 OM 7814 OM OM1 7814 -0.550000 15.99940
7815 OM 7815 OM OM1 7815 -0.550000 15.99940
7816 OM 7816 OM OM1 7816 -0.550000 15.99940
7817 OM 7817 OM OM1 7817 -0.550000 15.99940
7818 OM 7818 OM OM1 7818 -0.550000 15.99940
7819 OM 7819 OM OM1 7819 -0.550000 15.99940
7820 OM 7820 OM OM1 7820 -0.550000 15.99940
7821 OM 7821 OM OM1 7821 -0.550000 15.99940
7822 OM 7822 OM OM1 7822 -0.550000 15.99940
7823 OM 7823 OM OM1 7823 -0.550000 15.99940
7824 OM 7824 OM OM1 7824 -0.550000 15.99940
7825 OM 7825 OM OM1 7825 -0.550000 15.99940
7826 OM 7826 OM OM1 7826 -0.550000 15.99940
7827 OM 7827 OM OM1 7827 -0.550000 15.99940
7828 OM 7828 OM OM1 7828 -0.550000 15.99940
7829 OM 7829 OM OM1 7829 -0.550000 15.99940
7830 OM 7830 OM OM1 7830 -0.550000 15.99940
7831 OM 7831 OM OM1 7831 -0.550000 15.99940
7832 OM 7832 OM OM1 7832 -0.550000 15.99940
7833 OM 7833 OM OM1 7833 -0.550000 15.99940
7834 OM 7834 OM OM1 7834 -0.550000 15.99940
7835 OM 7835 OM OM1 7835 -0.550000 15.99940
7836 OM 7836 OM OM1 7836 -0.550000 15.99940
7837 OM 7837 OM OM1 7837 -0.550000 15.99940
7838 OM 7838 OM OM1 7838 -0.550000 15.99940
7839 OM 7839 OM OM1 7839 -0.550000 15.99940
7840 OM 7840 OM OM1 7840 -0.550000 15.99940
7841 OM 7841 OM OM1 7841 -0.550000 15.99940
7842 OM 7842 OM OM1 7842 -0.550000 15.99940
7843 OM 7843 OM OM1 7843 -0.550000 15.99940
7844 OM 7844 OM OM1 7844 -0.550000 15.99940
7845 OM 7845 OM OM1 7845 -0.550000 15.99940
7846 OM 7846 OM OM1 7846 -0.550000 15.99940
7847 OM 7847 OM OM1 7847 -0.550000 15.99940
7848 OM 7848 OM OM1 7848 -0.550000 15.99940
7849 OM 7849 OM OM1 7849 -0.550000 15.99940
7850 OM 7850 OM OM1 7850 -0.550000 15.99940
7851 OM 7851 OM OM1 7851 -0.550000 15.99940
7852 OM 7852 OM OM1 7852 -0.550000 15.99940
7853 OM 7853 OM OM1 7853 -0.550000 15.99940
7854 OM 7854 OM OM1 7854 -0.550000 15.99940
7855 OM 7855 OM OM1 7855 -0.550000 15.99940
7856 OM 7856 OM OM1 7856 -0.550000 15.99940
7857 OM 7857 OM OM1 7857 -0.550000 15.99940
7858 OM 7858 OM OM1 7858 -0.550000 15.99940
7859 OM 7859 OM OM1 7859 -0.550000 15.99940
7860 OM 7860 OM OM1 7860 -0.550000 15.99940
7861 OM 7861 OM OM1 7861 -0.550000 15.99940
7862 OM 7862 OM OM1 7862 -0.550000 15.99940
7863 OM 7863 OM OM1 7863 -0.550000 15.99940
7864 OM 7864 OM OM1 7864 -0.550000 15.99940
7865 OM 7865 OM OM1 7865 -0.550000 15.99940
7866 OM 7866 OM OM1 7866 -0.550000 15.99940
7867 OM 7867 OM OM1 7867 -0.550000 15.99940
7868 OM 7868 OM OM1 7868 -0.550000 15.99940
7869 OM 7869 OM OM1 7869 -0.550000 15.99940
7870 OM 7870 OM OM1 7870 -0.550000 15.99940
7871 OM 7871 OM OM1 7871 -0.550000 15.99940
7872 OM 7872 OM OM1 7872 -0.550000 15.99940
7873 OM 7873 OM OM1 7873 -0.550000 15.99940
7874 OM 7874 OM OM1 7874 -0.550000 15.99940
7875 OM 7875 OM OM1 7875 -0.550000 15.99940
7876 OM 7876 OM OM1 7876 -0.550000 15.99940
7877 OM 7877 OM OM1 7877 -0.550000 15.99940
7878 OM 7878 OM OM1 7878 -0.550000 15.99940
7879 OM 7879 OM OM1 7879 -0.550000 15.99940
7880 OM 7880 OM OM1 7880 -0.550000 15.99940
7881 OM 7881 OM OM1 7881 -0.550000 15.99940
7882 OM 7882 OM OM1 7882 -0.550000 15.99940
7883 OM 7883 OM OM1 7883 -0.550000 15.99940
7884 OM 7884 OM OM1 7884 -0.550000 15.99940
7885 OM 7885 OM OM1 7885 -0.550000 15.99940
7886 OM 7886 OM OM1 7886 -0.550000 15.99940
7887 OM 7887 OM OM1 7887 -0.550000 15.99940
7888 OM 7888 OM OM1 7888 -0.550000 15.99940
7889 OM 7889 OM OM1 7889 -0.550000 15.99940
7890 OM 7890 OM OM1 7890 -0.550000 15.99940
7891 OM 7891 OM OM1 7891 -0.550000 15.99940
7892 OM 7892 OM OM1 7892 -0.550000 15.99940
7893 OM 7893 OM OM1 7893 -0.550000 15.99940
7894 OM 7894 OM OM1 7894 -0.550000 15.99940
7895 OM 7895 OM OM1 7895 -0.550000 15.99940
7896 OM 7896 OM OM1 7896 -0.550000 15.99940
7897 OM 7897 OM OM1 7897 -0.550000 15.99940
7898 OM 7898 OM OM1 7898 -0.550000 15.99940
7899 OM 7899 OM OM1 7899 -0.550000 15.99940
7900 OM 7900 OM OM1 7900 -0.550000 15.99940
7901 OM 7901 OM OM1 7901 -0.550000 15.99940
7902 OM 7902 OM OM1 7902 -0.550000 15.99940
7903 OM 7903 OM OM1 7903 -0.550000 15.99940
7904 OM 7904 OM OM1 7904 -0.550000 15.99940
7905 OM 7905 OM OM1 7905 -0.550000 15.99940
7906 OM 7906 OM OM1 7906 -0.550000 15.99940
7907 OM 7907 OM OM1 7907 -0.550000 15.99940
7908 OM 7908 OM OM1 7908 -0.550000 15.99940
7909 OM 7909 OM OM1 7909 -0.550000 15.99940
7910 OM 7910 OM OM1 7910 -0.550000 15.99940
7911 OM 7911 OM OM1 7911 -0.550000 15.99940
7912 OM 7912 OM OM1 7912 -0.550000 15.99940
7913 OM 7913 OM OM1 7913 -0.550000 15.99940
7914 OM 7914 OM OM1 7914 -0.550000 15.99940
7915 OM 7915 OM OM1 7915 -0.550000 15.99940
7916 OM 7916 OM OM1 7916 -0.550000 15.99940
7917 OM 7917 OM OM1 7917 -0.550000 15.99940
7918 OM 7918 OM OM1 7918 -0.550000 15.99940
7919 OM 7919 OM OM1 7919 -0.550000 15.99940
7920 OM 7920 OM OM1 7920 -0.550000 15.99940
7921 OM 7921 OM OM1 7921 -0.550000 15.99940
7922 OM 7922 OM OM1 7922 -0.550000 15.99940
7923 OM 7923 OM OM1 7923 -0.550000 15.99940
7924 OM 7924 OM OM1 7924 -0.550000 15.99940
7925 OM 7925 OM OM1 7925 -0.550000 15.99940
7926 OM 7926 OM OM1 7926 -0.550000 15.99940
7927 OM 7927 OM OM1 7927 -0.550000 15.99940
7928 OM 7928 OM OM1 7928 -0.550000 15.99940
7929 OM 7929 OM OM1 7929 -0.550000 15.99940
7930 OM 7930 OM OM1 7930 -0.550000 15.99940
7931 OM 7931 OM OM1 7931 -0.550000 15.99940
7932 OM 7932 OM OM1 7932 -0.550000 15.99940
7933 OM 7933 OM OM1 7933 -0.550000 15.99940
7934 OM 7934 OM OM1 7934 -0.550000 15.99940
7935 OM 7935 OM OM1 7935 -0.550000 15.99940
7936 OM 7936 OM OM1 7936 -0.550000 15.99940
7937 OM 7937 OM OM1 7937 -0.550000 15.99940
7938 OM 7938 OM OM1 7938 -0.550000 15.99940
7939 OM 7939 OM OM1 7939 -0.550000 15.99940
7940 OM 7940 OM OM1 7940 -0.550000 15.99940
7941 OM 7941 OM OM1 7941 -0.550000 15.99940
7942 OM 7942 OM OM1 7942 -0.550000 15.99940
7943 OM 7943 OM OM1 7943 -0.550000 15.99940
7944 OM 7944 OM OM1 7944 -0.550000 15.99940
7945 OM 7945 OM OM1 7945 -0.550000 15.99940
7946 OM 7946 OM OM1 7946 -0.550000 15.99940
7947 OM 7947 OM OM1 7947 -0.550000 15.99940
7948 OM 7948 OM OM1 7948 -0.550000 15.99940
7949 OM 7949 OM OM1 7949 -0.550000 15.99940
7950 OM 7950 OM OM1 7950 -0.550000 15.99940
7951 OM 7951 OM OM1 7951 -0.550000 15.99940
7952 OM 7952 OM OM1 7952 -0.550000 15.99940
7953 OM 7953 OM OM1 7953 -0.550000 15.99940
7954 OM 7954 OM OM1 7954 -0.550000 15.99940
7955 OM 7955 OM OM1 7955 -0.550000 15.99940
7956 OM 7956 OM OM1 7956 -0.550000 15.99940
7957 OM 7957 OM OM1 7957 -0.550000 15.99940
7958 OM 7958 OM OM1 7958 -0.550000 15.99940
7959 OM 7959 OM OM1 7959 -0.550000 15.99940
7960 OM 7960 OM OM1 7960 -0.550000 15.99940
7961 OM 7961 OM OM1 7961 -0.550000 15.99940
7962 OM 7962 OM OM1 7962 -0.550000 15.99940
7963 OM 7963 OM OM1 7963 -0.550000 15.99940
7964 OM 7964 OM OM1 7964 -0.550000 15.99940
7965 OM 7965 OM OM1 7965 -0.550000 15.99940
7966 OM 7966 OM OM1 7966 -0.550000 15.99940
7967 OM 7967 OM OM1 7967 -0.550000 15.99940
7968 OM 7968 OM OM1 7968 -0.550000 15.99940
7969 OM 7969 OM OM1 7969 -0.550000 15.99940
7970 OM 7970 OM OM1 7970 -0.550000 15.99940
7971 OM 7971 OM OM1 7971 -0.550000 15.99940
7972 OM 7972 OM OM1 7972 -0.550000 15.99940
7973 OM 7973 OM OM1 7973 -0.550000 15.99940
7974 OM 7974 OM OM1 7974 -0.550000 15.99940
7975 OM 7975 OM OM1 7975 -0.550000 15.99940
7976 OM 7976 OM OM1 7976 -0.550000 15.99940
7977 OM 7977 OM OM1 7977 -0.550000 15.99940
7978 OM 7978 OM OM1 7978 -0.550000 15.99940
7979 OM 7979 OM OM1 7979 -0.550000 15.99940
7980 OM 7980 OM OM1 7980 -0.550000 15.99940
7981 OM 7981 OM OM1 7981 -0.550000 15.99940
7982 OM 7982 OM OM1 7982 -0.550000 15.99940
7983 OM 7983 OM OM1 7983 -0.550000 15.99940
7984 OM 7984 OM OM1 7984 -0.550000 15.99940
7985 OM 7985 OM OM1 7985 -0.550000 15.99940
7986 OM 7986 OM OM1 7986 -0.550000 15.99940
7987 OM 7987 OM OM1 7987 -0.550000 15.99940
7988 OM 7988 OM OM1 7988 -0.550000 15.99940
7989 OM 7989 OM OM1 7989 -0.550000 15.99940
7990 OM 7990 OM OM1 7990 -0.550000 15.99940
7991 OM 7991 OM OM1 7991 -0.550000 15.99940
7992 OM 7992 OM OM1 7992 -0.550000 15.99940
7993 OM 7993 OM OM1 7993 -0.550000 15.99940
7994 OM 7994 OM OM1 7994 -0.550000 15.99940
7995 OM 7995 OM OM1 7995 -0.550000 15.99940
7996 OM 7996 OM OM1 7996 -0.550000 15.99940
7997 OM 7997 OM OM1 7997 -0.550000 15.99940
7998 OM 7998 OM OM1 7998 -0.550000 15.99940
7999 OM 7999 OM OM1 7999 -0.550000 15.99940
8000 OM 8000 OM OM1 8000 -0.550000 15.99940
8001 OM 8001 OM OM1 8001 -0.550000 15.99940
8002 OM 8002 OM OM1 8002 -0.550000 15.99940
8003 OM 8003 OM OM1 8003 -0.550000 15.99940
8004 OM 8004 OM OM1 8004 -0.550000 15.99940
8005 OM 8005 OM OM1 8005 -0.550000 15.99940
8006 OM 8006 OM OM1 8006 -0.550000 15.99940
8007 OM 8007 OM OM1 8007 -0.550000 15.99940
8008 OM 8008 OM OM1 8008 -0.550000 15.99940
8009 OM 8009 OM OM1 8009 -0.550000 15.99940
8010 OM 8010 OM OM1 8010 -0.550000 15.99940
8011 OM 8011 OM OM1 8011 -0.550000 15.99940
8012 OM 8012 OM OM1 8012 -0.550000 15.99940
8013 OM 8013 OM OM1 8013 -0.550000 15.99940
8014 OM 8014 OM OM1 8014 -0.550000 15.99940
8015 OM 8015 OM OM1 8015 -0.550000 15.99940
8016 OM 8016 OM OM1 8016 -0.550000 15.99940
8017 OM 8017 OM OM1 8017 -0.550000 15.99940
8018 OM 8018 OM OM1 8018 -0.550000 15.99940
8019 OM 8019 OM OM1 8019 -0.550000 15.99940
8020 OM 8020 OM OM1 8020 -0.550000 15.99940
8021 OM 8021 OM OM1 8021 -0.550000 15.99940
8022 OM 8022 OM OM1 8022 -0.550000 15.99940
8023 OM 8023 OM OM1 8023 -0.550000 15.99940
8024 OM 8024 OM OM1 8024 -0.550000 15.99940
8025 OM 8025 OM OM1 8025 -0.550000 15.99940
8026 OM 8026 OM OM1 8026 -0.550000 15.99940
8027 OM 8027 OM OM1 8027 -0.550000 15.99940
8028 OM 8028 OM OM1 8028 -0.550000 15.99940
8029 OM 8029 OM OM1 8029 -0.550000 15.99940
8030 OM 8030 OM OM1 8030 -0.550000 15.99940
8031 OM 8031 OM OM1 8031 -0.550000 15.99940
8032 OM 8032 OM OM1 8032 -0.550000 15.99940
8033 OM 8033 OM OM1 8033 -0.550000 15.99940
8034 OM 8034 OM OM1 8034 -0.550000 15.99940
8035 OM 8035 OM OM1 8035 -0.550000 15.99940
8036 OM 8036 OM OM1 8036 -0.550000 15.99940
8037 OM 8037 OM OM1 8037 -0.550000 15.99940
8038 OM 8038 OM OM1 8038 -0.550000 15.99940
8039 OM 8039 OM OM1 8039 -0.550000 15.99940
8040 OM 8040 OM OM1 8040 -0.550000 15.99940
8041 OM 8041 OM OM1 8041 -0.550000 15.99940
8042 OM 8042 OM OM1 8042 -0.550000 15.99940
8043 OM 8043 OM OM1 8043 -0.550000 15.99940
8044 OM 8044 OM OM1 8044 -0.550000 15.99940
8045 OM 8045 OM OM1 8045 -0.550000 15.99940
8046 OM 8046 OM OM1 8046 -0.550000 15.99940
8047 OM 8047 OM OM1 8047 -0.550000 15.99940
8048 OM 8048 OM OM1 8048 -0.550000 15.99940
8049 OM 8049 OM OM1 8049 -0.550000 15.99940
8050 OM 8050 OM OM1 8050 -0.550000 15.99940
8051 OM 8051 OM OM1 8051 -0.550000 15.99940
8052 OM 8052 OM OM1 8052 -0.550000 15.99940
8053 OM 8053 OM OM1 8053 -0.550000 15.99940
8054 OM 8054 OM OM1 8054 -0.550000 15.99940
8055 OM 8055 OM OM1 8055 -0.550000 15.99940
8056 OM 8056 OM OM1 8056 -0.550000 15.99940
8057 OM 8057 OM OM1 8057 -0.550000 15.99940
8058 OM 8058 OM OM1 8058 -0.550000 15.99940
8059 OM 8059 OM OM1 8059 -0.550000 15.99940
8060 OM 8060 OM OM1 8060 -0.550000 15.99940
8061 OM 8061 OM OM1 8061 -0.550000 15.99940
8062 OM 8062 OM OM1 8062 -0.550000 15.99940
8063 OM 8063 OM OM1 8063 -0.550000 15.99940
8064 OM 8064 OM OM1 8064 -0.550000 15.99940
8065 OM 8065 OM OM1 8065 -0.550000 15.99940
8066 OM 8066 OM OM1 8066 -0.550000 15.99940
8067 OM 8067 OM OM1 8067 -0.550000 15.99940
8068 OM 8068 OM OM1 8068 -0.550000 15.99940
8069 OM 8069 OM OM1 8069 -0.550000 15.99940
8070 OM 8070 OM OM1 8070 -0.550000 15.99940
8071 OM 8071 OM OM1 8071 -0.550000 15.99940
8072 OM 8072 OM OM1 8072 -0.550000 15.99940
8073 OM 8073 OM OM1 8073 -0.550000 15.99940
8074 OM 8074 OM OM1 8074 -0.550000 15.99940
8075 OM 8075 OM OM1 8075 -0.550000 15.99940
8076 OM 8076 OM OM1 8076 -0.550000 15.99940
8077 OM 8077 OM OM1 8077 -0.550000 15.99940
8078 OM 8078 OM OM1 8078 -0.550000 15.99940
8079 OM 8079 OM OM1 8079 -0.550000 15.99940
8080 OM 8080 OM OM1 8080 -0.550000 15.99940
8081 OM 8081 OM OM1 8081 -0.550000 15.99940
8082 OM 8082 OM OM1 8082 -0.550000 15.99940
8083 OM 8083 OM OM1 8083 -0.550000 15.99940
8084 OM 8084 OM OM1 8084 -0.550000 15.99940
8085 OM 8085 OM OM1 8085 -0.550000 15.99940
8086 OM 8086 OM OM1 8086 -0.550000 15.99940
8087 OM 8087 OM OM1 8087 -0.550000 15.99940
8088 OM 8088 OM OM1 8088 -0.550000 15.99940
8089 OM 8089 OM OM1 8089 -0.550000 15.99940
8090 OM 8090 OM OM1 8090 -0.550000 15.99940
8091 OM 8091 OM OM1 8091 -0.550000 15.99940
8092 OM 8092 OM OM1 8092 -0.550000 15.99940
8093 OM 8093 OM OM1 8093 -0.550000 15.99940
8094 OM 8094 OM OM1 8094 -0.550000 15.99940
8095 OM 8095 OM OM1 8095 -0.550000 15.99940
8096 OM 8096 OM OM1 8096 -0.550000 15.99940
8097 OM 8097 OM OM1 8097 -0.550000 15.99940
8098 OM 8098 OM OM1 8098 -0.550000 15.99940
8099 OM 8099 OM OM1 8099 -0.550000 15.99940
8100 OM 8100 OM OM1 8100 -0.550000 15.99940
8101 OM 8101 OM OM1 8101 -0.550000 15.99940
8102 OM 8102 OM OM1 8102 -0.550000 15.99940
8103 OM 8103 OM OM1 8103 -0.550000 15.99940
8104 OM 8104 OM OM1 8104 -0.550000 15.99940
8105 OM 8105 OM OM1 8105 -0.550000 15.99940
8106 OM 8106 OM OM1 8106 -0.550000 15.99940
8107 OM 8107 OM OM1 8107 -0.550000 15.99940
8108 OM 8108 OM OM1 8108 -0.550000 15.99940
8109 OM 8109 OM OM1 8109 -0.550000 15.99940
8110 OM 8110 OM OM1 8110 -0.550000 15.99940
8111 OM 8111 OM OM1 8111 -0.550000 15.99940
8112 OM 8112 OM OM1 8112 -0.550000 15.99940
8113 OM 8113 OM OM1 8113 -0.550000 15.99940
8114 OM 8114 OM OM1 8114 -0.550000 15.99940
8115 OM 8115 OM OM1 8115 -0.550000 15.99940
8116 OM 8116 OM OM1 8116 -0.550000 15.99940
8117 OM 8117 OM OM1 8117 -0.550000 15.99940
8118 OM 8118 OM OM1 8118 -0.550000 15.99940
8119 OM 8119 OM OM1 8119 -0.550000 15.99940
8120 OM 8120 OM OM1 8120 -0.550000 15.99940
8121 OM 8121 OM OM1 8121 -0.550000 15.99940
8122 OM 8122 OM OM1 8122 -0.550000 15.99940
8123 OM 8123 OM OM1 8123 -0.550000 15.99940
8124 OM 8124 OM OM1 8124 -0.550000 15.99940
8125 OM 8125 OM OM1 8125 -0.550000 15.99940
8126 OM 8126 OM OM1 8126 -0.550000 15.99940
8127 OM 8127 OM OM1 8127 -0.550000 15.99940
8128 OM 8128 OM OM1 8128 -0.550000 15.99940
8129 OM 8129 OM OM1 8129 -0.550000 15.99940
8130 OM 8130 OM OM1 8130 -0.550000 15.99940
8131 OM 8131 OM OM1 8131 -0.550000 15.99940
8132 OM 8132 OM OM1 8132 -0.550000 15.99940
8133 OM 8133 OM OM1 8133 -0.550000 15.99940
8134 OM 8134 OM OM1 8134 -0.550000 15.99940
8135 OM 8135 OM OM1 8135 -0.550000 15.99940
8136 OM 8136 OM OM1 8136 -0.550000 15.99940
8137 OM 8137 OM OM1 8137 -0.550000 15.99940
8138 OM 8138 OM OM1 8138 -0.550000 15.99940
8139 OM 8139 OM OM1 8139 -0.550000 15.99940
8140 OM 8140 OM OM1 8140 -0.550000 15.99940
8141 OM 8141 OM OM1 8141 -0.550000 15.99940
8142 OM 8142 OM OM1 8142 -0.550000 15.99940
8143 OM 8143 OM OM1 8143 -0.550000 15.99940
8144 OM 8144 OM OM1 8144 -0.550000 15.99940
8145 OM 8145 OM OM1 8145 -0.550000 15.99940
8146 OM 8146 OM OM1 8146 -0.550000 15.99940
8147 OM 8147 OM OM1 8147 -0.550000 15.99940
8148 OM 8148 OM OM1 8148 -0.550000 15.99940
8149 OM 8149 OM OM1 8149 -0.550000 15.99940
8150 OM 8150 OM OM1 8150 -0.550000 15.99940
8151 OM 8151 OM OM1 8151 -0.550000 15.99940
8152 OM 8152 OM OM1 8152 -0.550000 15.99940
8153 OM 8153 OM OM1 8153 -0.550000 15.99940
8154 OM 8154 OM OM1 8154 -0.550000 15.99940
8155 OM 8155 OM OM1 8155 -0.550000 15.99940
8156 OM 8156 OM OM1 8156 -0.550000 15.99940
8157 OM 8157 OM OM1 8157 -0.550000 15.99940
8158 OM 8158 OM OM1 8158 -0.550000 15.99940
8159 OM 8159 OM OM1 8159 -0.550000 15.99940
8160 OM 8160 OM OM1 8160 -0.550000 15.99940
8161 OM 8161 OM OM1 8161 -0.550000 15.99940
8162 OM 8162 OM OM1 8162 -0.550000 15.99940
8163 OM 8163 OM OM1 8163 -0.550000 15.99940
8164 OM 8164 OM OM1 8164 -0.550000 15.99940
8165 OM 8165 OM OM1 8165 -0.550000 15.99940
8166 OM 8166 OM OM1 8166 -0.550000 15.99940
8167 OM 8167 OM OM1 8167 -0.550000 15.99940
8168 OM 8168 OM OM1 8168 -0.550000 15.99940
8169 OM 8169 OM OM1 8169 -0.550000 15.99940
8170 OM 8170 OM OM1 8170 -0.550000 15.99940
8171 OM 8171 OM OM1 8171 -0.550000 15.99940
8172 OM 8172 OM OM1 8172 -0.550000 15.99940
8173 OM 8173 OM OM1 8173 -0.550000 15.99940
8174 OM 8174 OM OM1 8174 -0.550000 15.99940
8175 OM 8175 OM OM1 8175 -0.550000 15.99940
8176 OM 8176 OM OM1 8176 -0.550000 15.99940
8177 OM 8177 OM OM1 8177 -0.550000 15.99940
8178 OM 8178 OM OM1 8178 -0.550000 15.99940
8179 OM 8179 OM OM1 8179 -0.550000 15.99940
8180 OM 8180 OM OM1 8180 -0.550000 15.99940
8181 OM 8181 OM OM1 8181 -0.550000 15.99940
8182 OM 8182 OM OM1 8182 -0.550000 15.99940
8183 OM 8183 OM OM1 8183 -0.550000 15.99940
8184 OM 8184 OM OM1 8184 -0.550000 15.99940
8185 OM 8185 OM OM1 8185 -0.550000 15.99940
8186 OM 8186 OM OM1 8186 -0.550000 15.99940
8187 OM 8187 OM OM1 8187 -0.550000 15.99940
8188 OM 8188 OM OM1 8188 -0.550000 15.99940
8189 OM 8189 OM OM1 8189 -0.550000 15.99940
8190 OM 8190 OM OM1 8190 -0.550000 15.99940
8191 OM 8191 OM OM1 8191 -0.550000 15.99940
8192 OM 8192 OM OM1 8192 -0.550000 15.99940
8193 OM 8193 OM OM1 8193 -0.550000 15.99940
8194 OM 8194 OM OM1 8194 -0.550000 15.99940
8195 OM 8195 OM OM1 8195 -0.550000 15.99940
8196 OM 8196 OM OM1 8196 -0.550000 15.99940
8197 OM 8197 OM OM1 8197 -0.550000 15.99940
8198 OM 8198 OM OM1 8198 -0.550000 15.99940
8199 OM 8199 OM OM1 8199 -0.550000 15.99940
8200 OM 8200 OM OM1 8200 -0.550000 15.99940
8201 OM 8201 OM OM1 8201 -0.550000 15.99940
8202 OM 8202 OM OM1 8202 -0.550000 15.99940
8203 OM 8203 OM OM1 8203 -0.550000 15.99940
8204 OM 8204 OM OM1 8204 -0.550000 15.99940
8205 OM 8205 OM OM1 8205 -0.550000 15.99940
8206 OM 8206 OM OM1 8206 -0.550000 15.99940
8207 OM 8207 OM OM1 8207 -0.550000 15.99940
8208 OM 8208 OM OM1 8208 -0.550000 15.99940
8209 OM 8209 OM OM1 8209 -0.550000 15.99940
8210 OM 8210 OM OM1 8210 -0.550000 15.99940
8211 OM 8211 OM OM1 8211 -0.550000 15.99940
8212 OM 8212 OM OM1 8212 -0.550000 15.99940
8213 OM 8213 OM OM1 8213 -0.550000 15.99940
8214 OM 8214 OM OM1 8214 -0.550000 15.99940
8215 OM 8215 OM OM1 8215 -0.550000 15.99940
8216 OM 8216 OM OM1 8216 -0.550000 15.99940
8217 OM 8217 OM OM1 8217 -0.550000 15.99940
8218 OM 8218 OM OM1 8218 -0.550000 15.99940
8219 OM 8219 OM OM1 8219 -0.550000 15.99940
8220 OM 8220 OM OM1 8220 -0.550000 15.99940
8221 OM 8221 OM OM1 8221 -0.550000 15.99940
8222 OM 8222 OM OM1 8222 -0.550000 15.99940
8223 OM 8223 OM OM1 8223 -0.550000 15.99940
8224 OM 8224 OM OM1 8224 -0.550000 15.99940
8225 OM 8225 OM OM1 8225 -0.550000 15.99940
8226 OM 8226 OM OM1 8226 -0.550000 15.99940
8227 OM 8227 OM OM1 8227 -0.550000 15.99940
8228 OM 8228 OM OM1 8228 -0.550000 15.99940
8229 OM 8229 OM OM1 8229 -0.550000 15.99940
8230 OM 8230 OM OM1 8230 -0.550000 15.99940
8231 OM 8231 OM OM1 8231 -0.550000 15.99940
8232 OM 8232 OM OM1 8232 -0.550000 15.99940
8233 OM 8233 OM OM1 8233 -0.550000 15.99940
8234 OM 8234 OM OM1 8234 -0.550000 15.99940
8235 OM 8235 OM OM1 8235 -0.550000 15.99940
8236 OM 8236 OM OM1 8236 -0.550000 15.99940
8237 OM 8237 OM OM1 8237 -0.550000 15.99940
8238 OM 8238 OM OM1 8238 -0.550000 15.99940
8239 OM 8239 OM OM1 8239 -0.550000 15.99940
8240 OM 8240 OM OM1 8240 -0.550000 15.99940
8241 OM 8241 OM OM1 8241 -0.550000 15.99940
8242 OM 8242 OM OM1 8242 -0.550000 15.99940
8243 OM 8243 OM OM1 8243 -0.550000 15.99940
8244 OM 8244 OM OM1 8244 -0.550000 15.99940
8245 OM 8245 OM OM1 8245 -0.550000 15.99940
8246 OM 8246 OM OM1 8246 -0.550000 15.99940
8247 OM 8247 OM OM1 8247 -0.550000 15.99940
8248 OM 8248 OM OM1 8248 -0.550000 15.99940
8249 OM 8249 OM OM1 8249 -0.550000 15.99940
8250 OM 8250 OM OM1 8250 -0.550000 15.99940
8251 OM 8251 OM OM1 8251 -0.550000 15.99940
8252 OM 8252 OM OM1 8252 -0.550000 15.99940
8253 OM 8253 OM OM1 8253 -0.550000 15.99940
8254 OM 8254 OM OM1 8254 -0.550000 15.99940
8255 OM 8255 OM OM1 8255 -0.550000 15.99940
8256 OM 8256 OM OM1 8256 -0.550000 15.99940
8257 OM 8257 OM OM1 8257 -0.550000 15.99940
8258 OM 8258 OM OM1 8258 -0.550000 15.99940
8259 OM 8259 OM OM1 8259 -0.550000 15.99940
8260 OM 8260 OM OM1 8260 -0.550000 15.99940
8261 OM 8261 OM OM1 8261 -0.550000 15.99940
8262 OM 8262 OM OM1 8262 -0.550000 15.99940
8263 OM 8263 OM OM1 8263 -0.550000 15.99940
8264 OM 8264 OM OM1 8264 -0.550000 15.99940
8265 OM 8265 OM OM1 8265 -0.550000 15.99940
8266 OM 8266 OM OM1 8266 -0.550000 15.99940
8267 OM 8267 OM OM1 8267 -0.550000 15.99940
8268 OM 8268 OM OM1 8268 -0.550000 15.99940
8269 OM 8269 OM OM1 8269 -0.550000 15.99940
8270 OM 8270 OM OM1 8270 -0.550000 15.99940
8271 OM 8271 OM OM1 8271 -0.550000 15.99940
8272 OM 8272 OM OM1 8272 -0.550000 15.99940
8273 OM 8273 OM OM1 8273 -0.550000 15.99940
8274 OM 8274 OM OM1 8274 -0.550000 15.99940
8275 OM 8275 OM OM1 8275 -0.550000 15.99940
8276 OM 8276 OM OM1 8276 -0.550000 15.99940
8277 OM 8277 OM OM1 8277 -0.550000 15.99940
8278 OM 8278 OM OM1 8278 -0.550000 15.99940
8279 OM 8279 OM OM1 8279 -0.550000 15.99940
8280 OM 8280 OM OM1 8280 -0.550000 15.99940
8281 OM 8281 OM OM1 8281 -0.550000 15.99940
8282 OM 8282 OM OM1 8282 -0.550000 15.99940
8283 OM 8283 OM OM1 8283 -0.550000 15.99940
8284 OM 8284 OM OM1 8284 -0.550000 15.99940
8285 OM 8285 OM OM1 8285 -0.550000 15.99940
8286 OM 8286 OM OM1 8286 -0.550000 15.99940
8287 OM 8287 OM OM1 8287 -0.550000 15.99940
8288 OM 8288 OM OM1 8288 -0.550000 15.99940
8289 OM 8289 OM OM1 8289 -0.550000 15.99940
8290 OM 8290 OM OM1 8290 -0.550000 15.99940
8291 OM 8291 OM OM1 8291 -0.550000 15.99940
8292 OM 8292 OM OM1 8292 -0.550000 15.99940
8293 OM 8293 OM OM1 8293 -0.550000 15.99940
8294 OM 8294 OM OM1 8294 -0.550000 15.99940
8295 OM 8295 OM OM1 8295 -0.550000 15.99940
8296 OM 8296 OM OM1 8296 -0.550000 15.99940
8297 OM 8297 OM OM1 8297 -0.550000 15.99940
8298 OM 8298 OM OM1 8298 -0.550000 15.99940
8299 OM 8299 OM OM1 8299 -0.550000 15.99940
8300 OM 8300 OM OM1 8300 -0.550000 15.99940
8301 OM 8301 OM OM1 8301 -0.550000 15.99940
8302 OM 8302 OM OM1 8302 -0.550000 15.99940
8303 OM 8303 OM OM1 8303 -0.550000 15.99940
8304 OM 8304 OM OM1 8304 -0.550000 15.99940
8305 OM 8305 OM OM1 8305 -0.550000 15.99940
8306 OM 8306 OM OM1 8306 -0.550000 15.99940
8307 OM 8307 OM OM1 8307 -0.550000 15.99940
8308 OM 8308 OM OM1 8308 -0.550000 15.99940
8309 OM 8309 OM OM1 8309 -0.550000 15.99940
8310 OM 8310 OM OM1 8310 -0.550000 15.99940
8311 OM 8311 OM OM1 8311 -0.550000 15.99940
8312 OM 8312 OM OM1 8312 -0.550000 15.99940
8313 OM 8313 OM OM1 8313 -0.550000 15.99940
8314 OM 8314 OM OM1 8314 -0.550000 15.99940
8315 OM 8315 OM OM1 8315 -0.550000 15.99940
8316 OM 8316 OM OM1 8316 -0.550000 15.99940
8317 OM 8317 OM OM1 8317 -0.550000 15.99940
8318 OM 8318 OM OM1 8318 -0.550000 15.99940
8319 OM 8319 OM OM1 8319 -0.550000 15.99940
8320 OM 8320 OM OM1 8320 -0.550000 15.99940
8321 OM 8321 OM OM1 8321 -0.550000 15.99940
8322 OM 8322 OM OM1 8322 -0.550000 15.99940
8323 OM 8323 OM OM1 8323 -0.550000 15.99940
8324 OM 8324 OM OM1 8324 -0.550000 15.99940
8325 OM 8325 OM OM1 8325 -0.550000 15.99940
8326 OM 8326 OM OM1 8326 -0.550000 15.99940
8327 OM 8327 OM OM1 8327 -0.550000 15.99940
8328 OM 8328 OM OM1 8328 -0.550000 15.99940
8329 OM 8329 OM OM1 8329 -0.550000 15.99940
8330 OM 8330 OM OM1 8330 -0.550000 15.99940
8331 OM 8331 OM OM1 8331 -0.550000 15.99940
8332 OM 8332 OM OM1 8332 -0.550000 15.99940
8333 OM 8333 OM OM1 8333 -0.550000 15.99940
8334 OM 8334 OM OM1 8334 -0.550000 15.99940
8335 OM 8335 OM OM1 8335 -0.550000 15.99940
8336 OM 8336 OM OM1 8336 -0.550000 15.99940
8337 OM 8337 OM OM1 8337 -0.550000 15.99940
8338 OM 8338 OM OM1 8338 -0.550000 15.99940
8339 OM 8339 OM OM1 8339 -0.550000 15.99940
8340 OM 8340 OM OM1 8340 -0.550000 15.99940
8341 OM 8341 OM OM1 8341 -0.550000 15.99940
8342 OM 8342 OM OM1 8342 -0.550000 15.99940
8343 OM 8343 OM OM1 8343 -0.550000 15.99940
8344 OM 8344 OM OM1 8344 -0.550000 15.99940
8345 OM 8345 OM OM1 8345 -0.550000 15.99940
8346 OM 8346 OM OM1 8346 -0.550000 15.99940
8347 OM 8347 OM OM1 8347 -0.550000 15.99940
8348 OM 8348 OM OM1 8348 -0.550000 15.99940
8349 OM 8349 OM OM1 8349 -0.550000 15.99940
8350 OM 8350 OM OM1 8350 -0.550000 15.99940
8351 OM 8351 OM OM1 8351 -0.550000 15.99940
8352 OM 8352 OM OM1 8352 -0.550000 15.99940
8353 OM 8353 OM OM1 8353 -0.550000 15.99940
8354 OM 8354 OM OM1 8354 -0.550000 15.99940
8355 OM 8355 OM OM1 8355 -0.550000 15.99940
8356 OM 8356 OM OM1 8356 -0.550000 15.99940
8357 OM 8357 OM OM1 8357 -0.550000 15.99940
8358 OM 8358 OM OM1 8358 -0.550000 15.99940
8359 OM 8359 OM OM1 8359 -0.550000 15.99940
8360 OM 8360 OM OM1 8360 -0.550000 15.99940
8361 OM 8361 OM OM1 8361 -0.550000 15.99940
8362 OM 8362 OM OM1 8362 -0.550000 15.99940
8363 OM 8363 OM OM1 8363 -0.550000 15.99940
8364 OM 8364 OM OM1 8364 -0.550000 15.99940
8365 OM 8365 OM OM1 8365 -0.550000 15.99940
8366 OM 8366 OM OM1 8366 -0.550000 15.99940
8367 OM 8367 OM OM1 8367 -0.550000 15.99940
8368 OM 8368 OM OM1 8368 -0.550000 15.99940
8369 OM 8369 OM OM1 8369 -0.550000 15.99940
8370 OM 8370 OM OM1 8370 -0.550000 15.99940
8371 OM 8371 OM OM1 8371 -0.550000 15.99940
8372 OM 8372 OM OM1 8372 -0.550000 15.99940
8373 OM 8373 OM OM1 8373 -0.550000 15.99940
8374 OM 8374 OM OM1 8374 -0.550000 15.99940
8375 OM 8375 OM OM1 8375 -0.550000 15.99940
8376 OM 8376 OM OM1 8376 -0.550000 15.99940
8377 OM 8377 OM OM1 8377 -0.550000 15.99940
8378 OM 8378 OM OM1 8378 -0.550000 15.99940
8379 OM 8379 OM OM1 8379 -0.550000 15.99940
8380 OM 8380 OM OM1 8380 -0.550000 15.99940
8381 OM 8381 OM OM1 8381 -0.550000 15.99940
8382 OM 8382 OM OM1 8382 -0.550000 15.99940
8383 OM 8383 OM OM1 8383 -0.550000 15.99940
8384 OM 8384 OM OM1 8384 -0.550000 15.99940
8385 OM 8385 OM OM1 8385 -0.550000 15.99940
8386 OM 8386 OM OM1 8386 -0.550000 15.99940
8387 OM 8387 OM OM1 8387 -0.550000 15.99940
8388 OM 8388 OM OM1 8388 -0.550000 15.99940
8389 OM 8389 OM OM1 8389 -0.550000 15.99940
8390 OM 8390 OM OM1 8390 -0.550000 15.99940
8391 OM 8391 OM OM1 8391 -0.550000 15.99940
8392 OM 8392 OM OM1 8392 -0.550000 15.99940
8393 OM 8393 OM OM1 8393 -0.550000 15.99940
8394 OM 8394 OM OM1 8394 -0.550000 15.99940
8395 OM 8395 OM OM1 8395 -0.550000 15.99940
8396 OM 8396 OM OM1 8396 -0.550000 15.99940
8397 OM 8397 OM OM1 8397 -0.550000 15.99940
8398 OM 8398 OM OM1 8398 -0.550000 15.99940
8399 OM 8399 OM OM1 8399 -0.550000 15.99940
8400 OM 8400 OM OM1 8400 -0.550000 15.99940
8401 OM 8401 OM OM1 8401 -0.550000 15.99940
8402 OM 8402 OM OM1 8402 -0.550000 15.99940
8403 OM 8403 OM OM1 8403 -0.550000 15.99940
8404 OM 8404 OM OM1 8404 -0.550000 15.99940
8405 OM 8405 OM OM1 8405 -0.550000 15.99940
8406 OM 8406 OM OM1 8406 -0.550000 15.99940
8407 OM 8407 OM OM1 8407 -0.550000 15.99940
8408 OM 8408 OM OM1 8408 -0.550000 15.99940
8409 OM 8409 OM OM1 8409 -0.550000 15.99940
8410 OM 8410 OM OM1 8410 -0.550000 15.99940
8411 OM 8411 OM OM1 8411 -0.550000 15.99940
8412 OM 8412 OM OM1 8412 -0.550000 15.99940
8413 OM 8413 OM OM1 8413 -0.550000 15.99940
8414 OM 8414 OM OM1 8414 -0.550000 15.99940
8415 OM 8415 OM OM1 8415 -0.550000 15.99940
8416 OM 8416 OM OM1 8416 -0.550000 15.99940
8417 OM 8417 OM OM1 8417 -0.550000 15.99940
8418 OM 8418 OM OM1 8418 -0.550000 15.99940
8419 OM 8419 OM OM1 8419 -0.550000 15.99940
8420 OM 8420 OM OM1 8420 -0.550000 15.99940
8421 OM 8421 OM OM1 8421 -0.550000 15.99940
8422 OM 8422 OM OM1 8422 -0.550000 15.99940
8423 OM 8423 OM OM1 8423 -0.550000 15.99940
8424 OM 8424 OM OM1 8424 -0.550000 15.99940
8425 OM 8425 OM OM1 8425 -0.550000 15.99940
8426 OM 8426 OM OM1 8426 -0.550000 15.99940
8427 OM 8427 OM OM1 8427 -0.550000 15.99940
8428 OM 8428 OM OM1 8428 -0.550000 15.99940
8429 OM 8429 OM OM1 8429 -0.550000 15.99940
8430 OM 8430 OM OM1 8430 -0.550000 15.99940
8431 OM 8431 OM OM1 8431 -0.550000 15.99940
8432 OM 8432 OM OM1 8432 -0.550000 15.99940
8433 OM 8433 OM OM1 8433 -0.550000 15.99940
8434 OM 8434 OM OM1 8434 -0.550000 15.99940
8435 OM 8435 OM OM1 8435 -0.550000 15.99940
8436 OM 8436 OM OM1 8436 -0.550000 15.99940
8437 OM 8437 OM OM1 8437 -0.550000 15.99940
8438 OM 8438 OM OM1 8438 -0.550000 15.99940
8439 OM 8439 OM OM1 8439 -0.550000 15.99940
8440 OM 8440 OM OM1 8440 -0.550000 15.99940
8441 OM 8441 OM OM1 8441 -0.550000 15.99940
8442 OM 8442 OM OM1 8442 -0.550000 15.99940
8443 OM 8443 OM OM1 8443 -0.550000 15.99940
8444 OM 8444 OM OM1 8444 -0.550000 15.99940
8445 OM 8445 OM OM1 8445 -0.550000 15.99940
8446 OM 8446 OM OM1 8446 -0.550000 15.99940
8447 OM 8447 OM OM1 8447 -0.550000 15.99940
8448 OM 8448 OM OM1 8448 -0.550000 15.99940
8449 OM 8449 OM OM1 8449 -0.550000 15.99940
8450 OM 8450 OM OM1 8450 -0.550000 15.99940
8451 OM 8451 OM OM1 8451 -0.550000 15.99940
8452 OM 8452 OM OM1 8452 -0.550000 15.99940
8453 OM 8453 OM OM1 8453 -0.550000 15.99940
8454 OM 8454 OM OM1 8454 -0.550000 15.99940
8455 OM 8455 OM OM1 8455 -0.550000 15.99940
8456 OM 8456 OM OM1 8456 -0.550000 15.99940
8457 OM 8457 OM OM1 8457 -0.550000 15.99940
8458 OM 8458 OM OM1 8458 -0.550000 15.99940
8459 OM 8459 OM OM1 8459 -0.550000 15.99940
8460 OM 8460 OM OM1 8460 -0.550000 15.99940
8461 OM 8461 OM OM1 8461 -0.550000 15.99940
8462 OM 8462 OM OM1 8462 -0.550000 15.99940
8463 OM 8463 OM OM1 8463 -0.550000 15.99940
8464 OM 8464 OM OM1 8464 -0.550000 15.99940
8465 OM 8465 OM OM1 8465 -0.550000 15.99940
8466 OM 8466 OM OM1 8466 -0.550000 15.99940
8467 OM 8467 OM OM1 8467 -0.550000 15.99940
8468 OM 8468 OM OM1 8468 -0.550000 15.99940
8469 OM 8469 OM OM1 8469 -0.550000 15.99940
8470 OM 8470 OM OM1 8470 -0.550000 15.99940
8471 OM 8471 OM OM1 8471 -0.550000 15.99940
8472 OM 8472 OM OM1 8472 -0.550000 15.99940
8473 OM 8473 OM OM1 8473 -0.550000 15.99940
8474 OM 8474 OM OM1 8474 -0.550000 15.99940
8475 OM 8475 OM OM1 8475 -0.550000 15.99940
8476 OM 8476 OM OM1 8476 -0.550000 15.99940
8477 OM 8477 OM OM1 8477 -0.550000 15.99940
8478 OM 8478 OM OM1 8478 -0.550000 15.99940
8479 OM 8479 OM OM1 8479 -0.550000 15.99940
8480 OM 8480 OM OM1 8480 -0.550000 15.99940
8481 OM 8481 OM OM1 8481 -0.550000 15.99940
8482 OM 8482 OM OM1 8482 -0.550000 15.99940
8483 OM 8483 OM OM1 8483 -0.550000 15.99940
8484 OM 8484 OM OM1 8484 -0.550000 15.99940
8485 OM 8485 OM OM1 8485 -0.550000 15.99940
8486 OM 8486 OM OM1 8486 -0.550000 15.99940
8487 OM 8487 OM OM1 8487 -0.550000 15.99940
8488 OM 8488 OM OM1 8488 -0.550000 15.99940
8489 OM 8489 OM OM1 8489 -0.550000 15.99940
8490 OM 8490 OM OM1 8490 -0.550000 15.99940
8491 OM 8491 OM OM1 8491 -0.550000 15.99940
8492 OM 8492 OM OM1 8492 -0.550000 15.99940
8493 OM 8493 OM OM1 8493 -0.550000 15.99940
8494 OM 8494 OM OM1 8494 -0.550000 15.99940
8495 OM 8495 OM OM1 8495 -0.550000 15.99940
8496 OM 8496 OM OM1 8496 -0.550000 15.99940
8497 OM 8497 OM OM1 8497 -0.550000 15.99940
8498 OM 8498 OM OM1 8498 -0.550000 15.99940
8499 OM 8499 OM OM1 8499 -0.550000 15.99940
8500 OM 8500 OM OM1 8500 -0.550000 15.99940
8501 OM 8501 OM OM1 8501 -0.550000 15.99940
8502 OM 8502 OM OM1 8502 -0.550000 15.99940
8503 OM 8503 OM OM1 8503 -0.550000 15.99940
8504 OM 8504 OM OM1 8504 -0.550000 15.99940
8505 OM 8505 OM OM1 8505 -0.550000 15.99940
8506 OM 8506 OM OM1 8506 -0.550000 15.99940
8507 OM 8507 OM OM1 8507 -0.550000 15.99940
8508 OM 8508 OM OM1 8508 -0.550000 15.99940
8509 OM 8509 OM OM1 8509 -0.550000 15.99940
8510 OM 8510 OM OM1 8510 -0.550000 15.99940
8511 OM 8511 OM OM1 8511 -0.550000 15.99940
8512 OM 8512 OM OM1 8512 -0.550000 15.99940
8513 OM 8513 OM OM1 8513 -0.550000 15.99940
8514 OM 8514 OM OM1 8514 -0.550000 15.99940
8515 OM 8515 OM OM1 8515 -0.550000 15.99940
8516 OM 8516 OM OM1 8516 -0.550000 15.99940
8517 OM 8517 OM OM1 8517 -0.550000 15.99940
8518 OM 8518 OM OM1 8518 -0.550000 15.99940
8519 OM 8519 OM OM1 8519 -0.550000 15.99940
8520 OM 8520 OM OM1 8520 -0.550000 15.99940
8521 OM 8521 OM OM1 8521 -0.550000 15.99940
8522 OM 8522 OM OM1 8522 -0.550000 15.99940
8523 OM 8523 OM OM1 8523 -0.550000 15.99940
8524 OM 8524 OM OM1 8524 -0.550000 15.99940
8525 OM 8525 OM OM1 8525 -0.550000 15.99940
8526 OM 8526 OM OM1 8526 -0.550000 15.99940
8527 OM 8527 OM OM1 8527 -0.550000 15.99940
8528 OM 8528 OM OM1 8528 -0.550000 15.99940
8529 OM 8529 OM OM1 8529 -0.550000 15.99940
8530 OM 8530 OM OM1 8530 -0.550000 15.99940
8531 OM 8531 OM OM1 8531 -0.550000 15.99940
8532 OM 8532 OM OM1 8532 -0.550000 15.99940
8533 OM 8533 OM OM1 8533 -0.550000 15.99940
8534 OM 8534 OM OM1 8534 -0.550000 15.99940
8535 OM 8535 OM OM1 8535 -0.550000 15.99940
8536 OM 8536 OM OM1 8536 -0.550000 15.99940
8537 OM 8537 OM OM1 8537 -0.550000 15.99940
8538 OM 8538 OM OM1 8538 -0.550000 15.99940
8539 OM 8539 OM OM1 8539 -0.550000 15.99940
8540 OM 8540 OM OM1 8540 -0.550000 15.99940
8541 OM 8541 OM OM1 8541 -0.550000 15.99940
8542 OM 8542 OM OM1 8542 -0.550000 15.99940
8543 OM 8543 OM OM1 8543 -0.550000 15.99940
8544 OM 8544 OM OM1 8544 -0.550000 15.99940
8545 OM 8545 OM OM1 8545 -0.550000 15.99940
8546 OM 8546 OM OM1 8546 -0.550000 15.99940
8547 OM 8547 OM OM1 8547 -0.550000 15.99940
8548 OM 8548 OM OM1 8548 -0.550000 15.99940
8549 OM 8549 OM OM1 8549 -0.550000 15.99940
8550 OM 8550 OM OM1 8550 -0.550000 15.99940
8551 OM 8551 OM OM1 8551 -0.550000 15.99940
8552 OM 8552 OM OM1 8552 -0.550000 15.99940
8553 OM 8553 OM OM1 8553 -0.550000 15.99940
8554 OM 8554 OM OM1 8554 -0.550000 15.99940
8555 OM 8555 OM OM1 8555 -0.550000 15.99940
8556 OM 8556 OM OM1 8556 -0.550000 15.99940
8557 OM 8557 OM OM1 8557 -0.550000 15.99940
8558 OM 8558 OM OM1 8558 -0.550000 15.99940
8559 OM 8559 OM OM1 8559 -0.550000 15.99940
8560 OM 8560 OM OM1 8560 -0.550000 15.99940
8561 OM 8561 OM OM1 8561 -0.550000 15.99940
8562 OM 8562 OM OM1 8562 -0.550000 15.99940
8563 OM 8563 OM OM1 8563 -0.550000 15.99940
8564 OM 8564 OM OM1 8564 -0.550000 15.99940
8565 OM 8565 OM OM1 8565 -0.550000 15.99940
8566 OM 8566 OM OM1 8566 -0.550000 15.99940
8567 OM 8567 OM OM1 8567 -0.550000 15.99940
8568 OM 8568 OM OM1 8568 -0.550000 15.99940
8569 OM 8569 OM OM1 8569 -0.550000 15.99940
8570 OM 8570 OM OM1 8570 -0.550000 15.99940
8571 OM 8571 OM OM1 8571 -0.550000 15.99940
8572 OM 8572 OM OM1 8572 -0.550000 15.99940
8573 OM 8573 OM OM1 8573 -0.550000 15.99940
8574 OM 8574 OM OM1 8574 -0.550000 15.99940
8575 OM 8575 OM OM1 8575 -0.550000 15.99940
8576 OM 8576 OM OM1 8576 -0.550000 15.99940
8577 OM 8577 OM OM1 8577 -0.550000 15.99940
8578 OM 8578 OM OM1 8578 -0.550000 15.99940
8579 OM 8579 OM OM1 8579 -0.550000 15.99940
8580 OM 8580 OM OM1 8580 -0.550000 15.99940
8581 OM 8581 OM OM1 8581 -0.550000 15.99940
8582 OM 8582 OM OM1 8582 -0.550000 15.99940
8583 OM 8583 OM OM1 8583 -0.550000 15.99940
8584 OM 8584 OM OM1 8584 -0.550000 15.99940
8585 OM 8585 OM OM1 8585 -0.550000 15.99940
8586 OM 8586 OM OM1 8586 -0.550000 15.99940
8587 OM 8587 OM OM1 8587 -0.550000 15.99940
8588 OM 8588 OM OM1 8588 -0.550000 15.99940
8589 OM 8589 OM OM1 8589 -0.550000 15.99940
8590 OM 8590 OM OM1 8590 -0.550000 15.99940
8591 OM 8591 OM OM1 8591 -0.550000 15.99940
8592 OM 8592 OM OM1 8592 -0.550000 15.99940
8593 OM 8593 OM OM1 8593 -0.550000 15.99940
8594 OM 8594 OM OM1 8594 -0.550000 15.99940
8595 OM 8595 OM OM1 8595 -0.550000 15.99940
8596 OM 8596 OM OM1 8596 -0.550000 15.99940
8597 OM 8597 OM OM1 8597 -0.550000 15.99940
8598 OM 8598 OM OM1 8598 -0.550000 15.99940
8599 OM 8599 OM OM1 8599 -0.550000 15.99940
8600 OM 8600 OM OM1 8600 -0.550000 15.99940
8601 OM 8601 OM OM1 8601 -0.550000 15.99940
8602 OM 8602 OM OM1 8602 -0.550000 15.99940
8603 OM 8603 OM OM1 8603 -0.550000 15.99940
8604 OM 8604 OM OM1 8604 -0.550000 15.99940
8605 OM 8605 OM OM1 8605 -0.550000 15.99940
8606 OM 8606 OM OM1 8606 -0.550000 15.99940
8607 OM 8607 OM OM1 8607 -0.550000 15.99940
8608 OM 8608 OM OM1 8608 -0.550000 15.99940
8609 OM 8609 OM OM1 8609 -0.550000 15.99940
8610 OM 8610 OM OM1 8610 -0.550000 15.99940
8611 OM 8611 OM OM1 8611 -0.550000 15.99940
8612 OM 8612 OM OM1 8612 -0.550000 15.99940
8613 OM 8613 OM OM1 8613 -0.550000 15.99940
8614 OM 8614 OM OM1 8614 -0.550000 15.99940
8615 OM 8615 OM OM1 8615 -0.550000 15.99940
8616 OM 8616 OM OM1 8616 -0.550000 15.99940
8617 OM 8617 OM OM1 8617 -0.550000 15.99940
8618 OM 8618 OM OM1 8618 -0.550000 15.99940
8619 OM 8619 OM OM1 8619 -0.550000 15.99940
8620 OM 8620 OM OM1 8620 -0.550000 15.99940
8621 OM 8621 OM OM1 8621 -0.550000 15.99940
8622 OM 8622 OM OM1 8622 -0.550000 15.99940
8623 OM 8623 OM OM1 8623 -0.550000 15.99940
8624 OM 8624 OM OM1 8624 -0.550000 15.99940
8625 OM 8625 OM OM1 8625 -0.550000 15.99940
8626 OM 8626 OM OM1 8626 -0.550000 15.99940
8627 OM 8627 OM OM1 8627 -0.550000 15.99940
8628 OM 8628 OM OM1 8628 -0.550000 15.99940
8629 OM 8629 OM OM1 8629 -0.550000 15.99940
8630 OM 8630 OM OM1 8630 -0.550000 15.99940
8631 OM 8631 OM OM1 8631 -0.550000 15.99940
8632 OM 8632 OM OM1 8632 -0.550000 15.99940
8633 OM 8633 OM OM1 8633 -0.550000 15.99940
8634 OM 8634 OM OM1 8634 -0.550000 15.99940
8635 OM 8635 OM OM1 8635 -0.550000 15.99940
8636 OM 8636 OM OM1 8636 -0.550000 15.99940
8637 OM 8637 OM OM1 8637 -0.550000 15.99940
8638 OM 8638 OM OM1 8638 -0.550000 15.99940
8639 OM 8639 OM OM1 8639 -0.550000 15.99940
8640 OM 8640 OM OM1 8640 -0.550000 15.99940
8641 OM 8641 OM OM1 8641 -0.550000 15.99940
8642 OM 8642 OM OM1 8642 -0.550000 15.99940
8643 OM 8643 OM OM1 8643 -0.550000 15.99940
8644 OM 8644 OM OM1 8644 -0.550000 15.99940
8645 OM 8645 OM OM1 8645 -0.550000 15.99940
8646 OM 8646 OM OM1 8646 -0.550000 15.99940
8647 OM 8647 OM OM1 8647 -0.550000 15.99940
8648 OM 8648 OM OM1 8648 -0.550000 15.99940
8649 OM 8649 OM OM1 8649 -0.550000 15.99940
8650 OM 8650 OM OM1 8650 -0.550000 15.99940
8651 OM 8651 OM OM1 8651 -0.550000 15.99940
8652 OM 8652 OM OM1 8652 -0.550000 15.99940
8653 OM 8653 OM OM1 8653 -0.550000 15.99940
8654 OM 8654 OM OM1 8654 -0.550000 15.99940
8655 OM 8655 OM OM1 8655 -0.550000 15.99940
8656 OM 8656 OM OM1 8656 -0.550000 15.99940
8657 OM 8657 OM OM1 8657 -0.550000 15.99940
8658 OM 8658 OM OM1 8658 -0.550000 15.99940
8659 OM 8659 OM OM1 8659 -0.550000 15.99940
8660 OM 8660 OM OM1 8660 -0.550000 15.99940
8661 OM 8661 OM OM1 8661 -0.550000 15.99940
8662 OM 8662 OM OM1 8662 -0.550000 15.99940
8663 OM 8663 OM OM1 8663 -0.550000 15.99940
8664 OM 8664 OM OM1 8664 -0.550000 15.99940
8665 OM 8665 OM OM1 8665 -0.550000 15.99940
8666 OM 8666 OM OM1 8666 -0.550000 15.99940
8667 OM 8667 OM OM1 8667 -0.550000 15.99940
8668 OM 8668 OM OM1 8668 -0.550000 15.99940
8669 OM 8669 OM OM1 8669 -0.550000 15.99940
8670 OM 8670 OM OM1 8670 -0.550000 15.99940
8671 OM 8671 OM OM1 8671 -0.550000 15.99940
8672 OM 8672 OM OM1 8672 -0.550000 15.99940
8673 OM 8673 OM OM1 8673 -0.550000 15.99940
8674 OM 8674 OM OM1 8674 -0.550000 15.99940
8675 OM 8675 OM OM1 8675 -0.550000 15.99940
8676 OM 8676 OM OM1 8676 -0.550000 15.99940
8677 OM 8677 OM OM1 8677 -0.550000 15.99940
8678 OM 8678 OM OM1 8678 -0.550000 15.99940
8679 OM 8679 OM OM1 8679 -0.550000 15.99940
8680 OM 8680 OM OM1 8680 -0.550000 15.99940
8681 OM 8681 OM OM1 8681 -0.550000 15.99940
8682 OM 8682 OM OM1 8682 -0.550000 15.99940
8683 OM 8683 OM OM1 8683 -0.550000 15.99940
8684 OM 8684 OM OM1 8684 -0.550000 15.99940
8685 OM 8685 OM OM1 8685 -0.550000 15.99940
8686 OM 8686 OM OM1 8686 -0.550000 15.99940
8687 OM 8687 OM OM1 8687 -0.550000 15.99940
8688 OM 8688 OM OM1 8688 -0.550000 15.99940
8689 OM 8689 OM OM1 8689 -0.550000 15.99940
8690 OM 8690 OM OM1 8690 -0.550000 15.99940
8691 OM 8691 OM OM1 8691 -0.550000 15.99940
8692 OM 8692 OM OM1 8692 -0.550000 15.99940
8693 OM 8693 OM OM1 8693 -0.550000 15.99940
8694 OM 8694 OM OM1 8694 -0.550000 15.99940
8695 OM 8695 OM OM1 8695 -0.550000 15.99940
8696 OM 8696 OM OM1 8696 -0.550000 15.99940
8697 OM 8697 OM OM1 8697 -0.550000 15.99940
8698 OM 8698 OM OM1 8698 -0.550000 15.99940
8699 OM 8699 OM OM1 8699 -0.550000 15.99940
8700 OM 8700 OM OM1 8700 -0.550000 15.99940
8701 OM 8701 OM OM1 8701 -0.550000 15.99940
8702 OM 8702 OM OM1 8702 -0.550000 15.99940
8703 OM 8703 OM OM1 8703 -0.550000 15.99940
8704 OM 8704 OM OM1 8704 -0.550000 15.99940
8705 OM 8705 OM OM1 8705 -0.550000 15.99940
8706 OM 8706 OM OM1 8706 -0.550000 15.99940
8707 OM 8707 OM OM1 8707 -0.550000 15.99940
8708 OM 8708 OM OM1 8708 -0.550000 15.99940
8709 OM 8709 OM OM1 8709 -0.550000 15.99940
8710 OM 8710 OM OM1 8710 -0.550000 15.99940
8711 OM 8711 OM OM1 8711 -0.550000 15.99940
8712 OM 8712 OM OM1 8712 -0.550000 15.99940
8713 OM 8713 OM OM1 8713 -0.550000 15.99940
8714 OM 8714 OM OM1 8714 -0.550000 15.99940
8715 OM 8715 OM OM1 8715 -0.550000 15.99940
8716 OM 8716 OM OM1 8716 -0.550000 15.99940
8717 OM 8717 OM OM1 8717 -0.550000 15.99940
8718 OM 8718 OM OM1 8718 -0.550000 15.99940
8719 OM 8719 OM OM1 8719 -0.550000 15.99940
8720 OM 8720 OM OM1 8720 -0.550000 15.99940
8721 OM 8721 OM OM1 8721 -0.550000 15.99940
8722 OM 8722 OM OM1 8722 -0.550000 15.99940
8723 OM 8723 OM OM1 8723 -0.550000 15.99940
8724 OM 8724 OM OM1 8724 -0.550000 15.99940
8725 OM 8725 OM OM1 8725 -0.550000 15.99940
8726 OM 8726 OM OM1 8726 -0.550000 15.99940
8727 OM 8727 OM OM1 8727 -0.550000 15.99940
8728 OM 8728 OM OM1 8728 -0.550000 15.99940
8729 OM 8729 OM OM1 8729 -0.550000 15.99940
8730 OM 8730 OM OM1 8730 -0.550000 15.99940
8731 OM 8731 OM OM1 8731 -0.550000 15.99940
8732 OM 8732 OM OM1 8732 -0.550000 15.99940
8733 OM 8733 OM OM1 8733 -0.550000 15.99940
8734 OM 8734 OM OM1 8734 -0.550000 15.99940
8735 OM 8735 OM OM1 8735 -0.550000 15.99940
8736 OM 8736 OM OM1 8736 -0.550000 15.99940
8737 OM 8737 OM OM1 8737 -0.550000 15.99940
8738 OM 8738 OM OM1 8738 -0.550000 15.99940
8739 OM 8739 OM OM1 8739 -0.550000 15.99940
8740 OM 8740 OM OM1 8740 -0.550000 15.99940
8741 OM 8741 OM OM1 8741 -0.550000 15.99940
8742 OM 8742 OM OM1 8742 -0.550000 15.99940
8743 OM 8743 OM OM1 8743 -0.550000 15.99940
8744 OM 8744 OM OM1 8744 -0.550000 15.99940
8745 OM 8745 OM OM1 8745 -0.550000 15.99940
8746 OM 8746 OM OM1 8746 -0.550000 15.99940
8747 OM 8747 OM OM1 8747 -0.550000 15.99940
8748 OM 8748 OM OM1 8748 -0.550000 15.99940
8749 OM 8749 OM OM1 8749 -0.550000 15.99940
8750 OM 8750 OM OM1 8750 -0.550000 15.99940
8751 OM 8751 OM OM1 8751 -0.550000 15.99940
8752 OM 8752 OM OM1 8752 -0.550000 15.99940
8753 OM 8753 OM OM1 8753 -0.550000 15.99940
8754 OM 8754 OM OM1 8754 -0.550000 15.99940
8755 OM 8755 OM OM1 8755 -0.550000 15.99940
8756 OM 8756 OM OM1 8756 -0.550000 15.99940
8757 OM 8757 OM OM1 8757 -0.550000 15.99940
8758 OM 8758 OM OM1 8758 -0.550000 15.99940
8759 OM 8759 OM OM1 8759 -0.550000 15.99940
8760 OM 8760 OM OM1 8760 -0.550000 15.99940
8761 OM 8761 OM OM1 8761 -0.550000 15.99940
8762 OM 8762 OM OM1 8762 -0.550000 15.99940
8763 OM 8763 OM OM1 8763 -0.550000 15.99940
8764 OM 8764 OM OM1 8764 -0.550000 15.99940
8765 OM 8765 OM OM1 8765 -0.550000 15.99940
8766 OM 8766 OM OM1 8766 -0.550000 15.99940
8767 OM 8767 OM OM1 8767 -0.550000 15.99940
8768 OM 8768 OM OM1 8768 -0.550000 15.99940
8769 OM 8769 OM OM1 8769 -0.550000 15.99940
8770 OM 8770 OM OM1 8770 -0.550000 15.99940
8771 OM 8771 OM OM1 8771 -0.550000 15.99940
8772 OM 8772 OM OM1 8772 -0.550000 15.99940
8773 OM 8773 OM OM1 8773 -0.550000 15.99940
8774 OM 8774 OM OM1 8774 -0.550000 15.99940
8775 OM 8775 OM OM1 8775 -0.550000 15.99940
8776 OM 8776 OM OM1 8776 -0.550000 15.99940
8777 OM 8777 OM OM1 8777 -0.550000 15.99940
8778 OM 8778 OM OM1 8778 -0.550000 15.99940
8779 OM 8779 OM OM1 8779 -0.550000 15.99940
8780 OM 8780 OM OM1 8780 -0.550000 15.99940
8781 OM 8781 OM OM1 8781 -0.550000 15.99940
8782 OM 8782 OM OM1 8782 -0.550000 15.99940
8783 OM 8783 OM OM1 8783 -0.550000 15.99940
8784 OM 8784 OM OM1 8784 -0.550000 15.99940
8785 OM 8785 OM OM1 8785 -0.550000 15.99940
8786 OM 8786 OM OM1 8786 -0.550000 15.99940
8787 OM 8787 OM OM1 8787 -0.550000 15.99940
8788 OM 8788 OM OM1 8788 -0.550000 15.99940
8789 OM 8789 OM OM1 8789 -0.550000 15.99940
8790 OM 8790 OM OM1 8790 -0.550000 15.99940
8791 OM 8791 OM OM1 8791 -0.550000 15.99940
8792 OM 8792 OM OM1 8792 -0.550000 15.99940
8793 OM 8793 OM OM1 8793 -0.550000 15.99940
8794 OM 8794 OM OM1 8794 -0.550000 15.99940
8795 OM 8795 OM OM1 8795 -0.550000 15.99940
8796 OM 8796 OM OM1 8796 -0.550000 15.99940
8797 OM 8797 OM OM1 8797 -0.550000 15.99940
8798 OM 8798 OM OM1 8798 -0.550000 15.99940
8799 OM 8799 OM OM1 8799 -0.550000 15.99940
8800 OM 8800 OM OM1 8800 -0.550000 15.99940
8801 OM 8801 OM OM1 8801 -0.550000 15.99940
8802 OM 8802 OM OM1 8802 -0.550000 15.99940
8803 OM 8803 OM OM1 8803 -0.550000 15.99940
8804 OM 8804 OM OM1 8804 -0.550000 15.99940
8805 OM 8805 OM OM1 8805 -0.550000 15.99940
8806 OM 8806 OM OM1 8806 -0.550000 15.99940
8807 OM 8807 OM OM1 8807 -0.550000 15.99940
8808 OM 8808 OM OM1 8808 -0.550000 15.99940
8809 OM 8809 OM OM1 8809 -0.550000 15.99940
8810 OM 8810 OM OM1 8810 -0.550000 15.99940
8811 OM 8811 OM OM1 8811 -0.550000 15.99940
8812 OM 8812 OM OM1 8812 -0.550000 15.99940
8813 OM 8813 OM OM1 8813 -0.550000 15.99940
8814 OM 8814 OM OM1 8814 -0.550000 15.99940
8815 OM 8815 OM OM1 8815 -0.550000 15.99940
8816 OM 8816 OM OM1 8816 -0.550000 15.99940
8817 OM 8817 OM OM1 8817 -0.550000 15.99940
8818 OM 8818 OM OM1 8818 -0.550000 15.99940
8819 OM 8819 OM OM1 8819 -0.550000 15.99940
8820 OM 8820 OM OM1 8820 -0.550000 15.99940
8821 OM 8821 OM OM1 8821 -0.550000 15.99940
8822 OM 8822 OM OM1 8822 -0.550000 15.99940
8823 OM 8823 OM OM1 8823 -0.550000 15.99940
8824 OM 8824 OM OM1 8824 -0.550000 15.99940
8825 OM 8825 OM OM1 8825 -0.550000 15.99940
8826 OM 8826 OM OM1 8826 -0.550000 15.99940
8827 OM 8827 OM OM1 8827 -0.550000 15.99940
8828 OM 8828 OM OM1 8828 -0.550000 15.99940
8829 OM 8829 OM OM1 8829 -0.550000 15.99940
8830 OM 8830 OM OM1 8830 -0.550000 15.99940
8831 OM 8831 OM OM1 8831 -0.550000 15.99940
8832 OM 8832 OM OM1 8832 -0.550000 15.99940
8833 OM 8833 OM OM1 8833 -0.550000 15.99940
8834 OM 8834 OM OM1 8834 -0.550000 15.99940
8835 OM 8835 OM OM1 8835 -0.550000 15.99940
8836 OM 8836 OM OM1 8836 -0.550000 15.99940
8837 OM 8837 OM OM1 8837 -0.550000 15.99940
8838 OM 8838 OM OM1 8838 -0.550000 15.99940
8839 OM 8839 OM OM1 8839 -0.550000 15.99940
8840 OM 8840 OM OM1 8840 -0.550000 15.99940
8841 OM 8841 OM OM1 8841 -0.550000 15.99940
8842 OM 8842 OM OM1 8842 -0.550000 15.99940
8843 OM 8843 OM OM1 8843 -0.550000 15.99940
8844 OM 8844 OM OM1 8844 -0.550000 15.99940
8845 OM 8845 OM OM1 8845 -0.550000 15.99940
8846 OM 8846 OM OM1 8846 -0.550000 15.99940
8847 OM 8847 OM OM1 8847 -0.550000 15.99940
8848 OM 8848 OM OM1 8848 -0.550000 15.99940
8849 OM 8849 OM OM1 8849 -0.550000 15.99940
8850 OM 8850 OM OM1 8850 -0.550000 15.99940
8851 OM 8851 OM OM1 8851 -0.550000 15.99940
8852 OM 8852 OM OM1 8852 -0.550000 15.99940
8853 OM 8853 OM OM1 8853 -0.550000 15.99940
8854 OM 8854 OM OM1 8854 -0.550000 15.99940
8855 OM 8855 OM OM1 8855 -0.550000 15.99940
8856 OM 8856 OM OM1 8856 -0.550000 15.99940
8857 OM 8857 OM OM1 8857 -0.550000 15.99940
8858 OM 8858 OM OM1 8858 -0.550000 15.99940
8859 OM 8859 OM OM1 8859 -0.550000 15.99940
8860 OM 8860 OM OM1 8860 -0.550000 15.99940
8861 OM 8861 OM OM1 8861 -0.550000 15.99940
8862 OM 8862 OM OM1 8862 -0.550000 15.99940
8863 OM 8863 OM OM1 8863 -0.550000 15.99940
8864 OM 8864 OM OM1 8864 -0.550000 15.99940
8865 OM 8865 OM OM1 8865 -0.550000 15.99940
8866 OM 8866 OM OM1 8866 -0.550000 15.99940
8867 OM 8867 OM OM1 8867 -0.550000 15.99940
8868 OM 8868 OM OM1 8868 -0.550000 15.99940
8869 OM 8869 OM OM1 8869 -0.550000 15.99940
8870 OM 8870 OM OM1 8870 -0.550000 15.99940
8871 OM 8871 OM OM1 8871 -0.550000 15.99940
8872 OM 8872 OM OM1 8872 -0.550000 15.99940
8873 OM 8873 OM OM1 8873 -0.550000 15.99940
8874 OM 8874 OM OM1 8874 -0.550000 15.99940
8875 OM 8875 OM OM1 8875 -0.550000 15.99940
8876 OM 8876 OM OM1 8876 -0.550000 15.99940
8877 OM 8877 OM OM1 8877 -0.550000 15.99940
8878 OM 8878 OM OM1 8878 -0.550000 15.99940
8879 OM 8879 OM OM1 8879 -0.550000 15.99940
8880 OM 8880 OM OM1 8880 -0.550000 15.99940
8881 OM 8881 OM OM1 8881 -0.550000 15.99940
8882 OM 8882 OM OM1 8882 -0.550000 15.99940
8883 OM 8883 OM OM1 8883 -0.550000 15.99940
8884 OM 8884 OM OM1 8884 -0.550000 15.99940
8885 OM 8885 OM OM1 8885 -0.550000 15.99940
8886 OM 8886 OM OM1 8886 -0.550000 15.99940
8887 OM 8887 OM OM1 8887 -0.550000 15.99940
8888 OM 8888 OM OM1 8888 -0.550000 15.99940
8889 OM 8889 OM OM1 8889 -0.550000 15.99940
8890 OM 8890 OM OM1 8890 -0.550000 15.99940
8891 OM 8891 OM OM1 8891 -0.550000 15.99940
8892 OM 8892 OM OM1 8892 -0.550000 15.99940
8893 OM 8893 OM OM1 8893 -0.550000 15.99940
8894 OM 8894 OM OM1 8894 -0.550000 15.99940
8895 OM 8895 OM OM1 8895 -0.550000 15.99940
8896 OM 8896 OM OM1 8896 -0.550000 15.99940
8897 OM 8897 OM OM1 8897 -0.550000 15.99940
8898 OM 8898 OM OM1 8898 -0.550000 15.99940
8899 OM 8899 OM OM1 8899 -0.550000 15.99940
8900 OM 8900 OM OM1 8900 -0.550000 15.99940
8901 OM 8901 OM OM1 8901 -0.550000 15.99940
8902 OM 8902 OM OM1 8902 -0.550000 15.99940
8903 OM 8903 OM OM1 8903 -0.550000 15.99940
8904 OM 8904 OM OM1 8904 -0.550000 15.99940
8905 OM 8905 OM OM1 8905 -0.550000 15.99940
8906 OM 8906 OM OM1 8906 -0.550000 15.99940
8907 OM 8907 OM OM1 8907 -0.550000 15.99940
8908 OM 8908 OM OM1 8908 -0.550000 15.99940
8909 OM 8909 OM OM1 8909 -0.550000 15.99940
8910 OM 8910 OM OM1 8910 -0.550000 15.99940
8911 OM 8911 OM OM1 8911 -0.550000 15.99940
8912 OM 8912 OM OM1 8912 -0.550000 15.99940
8913 OM 8913 OM OM1 8913 -0.550000 15.99940
8914 OM 8914 OM OM1 8914 -0.550000 15.99940
8915 OM 8915 OM OM1 8915 -0.550000 15.99940
8916 OM 8916 OM OM1 8916 -0.550000 15.99940
8917 OM 8917 OM OM1 8917 -0.550000 15.99940
8918 OM 8918 OM OM1 8918 -0.550000 15.99940
8919 OM 8919 OM OM1 8919 -0.550000 15.99940
8920 OM 8920 OM OM1 8920 -0.550000 15.99940
8921 OM 8921 OM OM1 8921 -0.550000 15.99940
8922 OM 8922 OM OM1 8922 -0.550000 15.99940
8923 OM 8923 OM OM1 8923 -0.550000 15.99940
8924 OM 8924 OM OM1 8924 -0.550000 15.99940
8925 OM 8925 OM OM1 8925 -0.550000 15.99940
8926 OM 8926 OM OM1 8926 -0.550000 15.99940
8927 OM 8927 OM OM1 8927 -0.550000 15.99940
8928 OM 8928 OM OM1 8928 -0.550000 15.99940
8929 OM 8929 OM OM1 8929 -0.550000 15.99940
8930 OM 8930 OM OM1 8930 -0.550000 15.99940
8931 OM 8931 OM OM1 8931 -0.550000 15.99940
8932 OM 8932 OM OM1 8932 -0.550000 15.99940
8933 OM 8933 OM OM1 8933 -0.550000 15.99940
8934 OM 8934 OM OM1 8934 -0.550000 15.99940
8935 OM 8935 OM OM1 8935 -0.550000 15.99940
8936 OM 8936 OM OM1 8936 -0.550000 15.99940
8937 OM 8937 OM OM1 8937 -0.550000 15.99940
8938 OM 8938 OM OM1 8938 -0.550000 15.99940
8939 OM 8939 OM OM1 8939 -0.550000 15.99940
8940 OM 8940 OM OM1 8940 -0.550000 15.99940
8941 OM 8941 OM OM1 8941 -0.550000 15.99940
8942 OM 8942 OM OM1 8942 -0.550000 15.99940
8943 OM 8943 OM OM1 8943 -0.550000 15.99940
8944 OM 8944 OM OM1 8944 -0.550000 15.99940
8945 OM 8945 OM OM1 8945 -0.550000 15.99940
8946 OM 8946 OM OM1 8946 -0.550000 15.99940
8947 OM 8947 OM OM1 8947 -0.550000 15.99940
8948 OM 8948 OM OM1 8948 -0.550000 15.99940
8949 OM 8949 OM OM1 8949 -0.550000 15.99940
8950 OM 8950 OM OM1 8950 -0.550000 15.99940
8951 OM 8951 OM OM1 8951 -0.550000 15.99940
8952 OM 8952 OM OM1 8952 -0.550000 15.99940
8953 OM 8953 OM OM1 8953 -0.550000 15.99940
8954 OM 8954 OM OM1 8954 -0.550000 15.99940
8955 OM 8955 OM OM1 8955 -0.550000 15.99940
8956 OM 8956 OM OM1 8956 -0.550000 15.99940
8957 OM 8957 OM OM1 8957 -0.550000 15.99940
8958 OM 8958 OM OM1 8958 -0.550000 15.99940
8959 OM 8959 OM OM1 8959 -0.550000 15.99940
8960 OM 8960 OM OM1 8960 -0.550000 15.99940
8961 OM 8961 OM OM1 8961 -0.550000 15.99940
8962 OM 8962 OM OM1 8962 -0.550000 15.99940
8963 OM 8963 OM OM1 8963 -0.550000 15.99940
8964 OM 8964 OM OM1 8964 -0.550000 15.99940
8965 OM 8965 OM OM1 8965 -0.550000 15.99940
8966 OM 8966 OM OM1 8966 -0.550000 15.99940
8967 OM 8967 OM OM1 8967 -0.550000 15.99940
8968 OM 8968 OM OM1 8968 -0.550000 15.99940
8969 OM 8969 OM OM1 8969 -0.550000 15.99940
8970 OM 8970 OM OM1 8970 -0.550000 15.99940
8971 OM 8971 OM OM1 8971 -0.550000 15.99940
8972 OM 8972 OM OM1 8972 -0.550000 15.99940
8973 OM 8973 OM OM1 8973 -0.550000 15.99940
8974 OM 8974 OM OM1 8974 -0.550000 15.99940
8975 OM 8975 OM OM1 8975 -0.550000 15.99940
8976 OM 8976 OM OM1 8976 -0.550000 15.99940
8977 OM 8977 OM OM1 8977 -0.550000 15.99940
8978 OM 8978 OM OM1 8978 -0.550000 15.99940
8979 OM 8979 OM OM1 8979 -0.550000 15.99940
8980 OM 8980 OM OM1 8980 -0.550000 15.99940
8981 OM 8981 OM OM1 8981 -0.550000 15.99940
8982 OM 8982 OM OM1 8982 -0.550000 15.99940
8983 OM 8983 OM OM1 8983 -0.550000 15.99940
8984 OM 8984 OM OM1 8984 -0.550000 15.99940
8985 OM 8985 OM OM1 8985 -0.550000 15.99940
8986 OM 8986 OM OM1 8986 -0.550000 15.99940
8987 OM 8987 OM OM1 8987 -0.550000 15.99940
8988 OM 8988 OM OM1 8988 -0.550000 15.99940
8989 OM 8989 OM OM1 8989 -0.550000 15.99940
8990 OM 8990 OM OM1 8990 -0.550000 15.99940
8991 OM 8991 OM OM1 8991 -0.550000 15.99940
8992 OM 8992 OM OM1 8992 -0.550000 15.99940
8993 OM 8993 OM OM1 8993 -0.550000 15.99940
8994 OM 8994 OM OM1 8994 -0.550000 15.99940
8995 OM 8995 OM OM1 8995 -0.550000 15.99940
8996 OM 8996 OM OM1 8996 -0.550000 15.99940
8997 OM 8997 OM OM1 8997 -0.550000 15.99940
8998 OM 8998 OM OM1 8998 -0.550000 15.99940
8999 OM 8999 OM OM1 8999 -0.550000 15.99940
9000 OM 9000 OM OM1 9000 -0.550000 15.99940
9001 OM 9001 OM OM1 9001 -0.550000 15.99940
9002 OM 9002 OM OM1 9002 -0.550000 15.99940
9003 OM 9003 OM OM1 9003 -0.550000 15.99940
9004 OM 9004 OM OM1 9004 -0.550000 15.99940
9005 OM 9005 OM OM1 9005 -0.550000 15.99940
9006 OM 9006 OM OM1 9006 -0.550000 15.99940
9007 OM 9007 OM OM1 9007 -0.550000 15.99940
9008 OM 9008 OM OM1 9008 -0.550000 15.99940
9009 OM 9009 OM OM1 9009 -0.550000 15.99940
9010 OM 9010 OM OM1 9010 -0.550000 15.99940
9011 OM 9011 OM OM1 9011 -0.550000 15.99940
9012 OM 9012 OM OM1 9012 -0.550000 15.99940
9013 OM 9013 OM OM1 9013 -0.550000 15.99940
9014 OM 9014 OM OM1 9014 -0.550000 15.99940
9015 OM 9015 OM OM1 9015 -0.550000 15.99940
9016 OM 9016 OM OM1 9016 -0.550000 15.99940
9017 OM 9017 OM OM1 9017 -0.550000 15.99940
9018 OM 9018 OM OM1 9018 -0.550000 15.99940
9019 OM 9019 OM OM1 9019 -0.550000 15.99940
9020 OM 9020 OM OM1 9020 -0.550000 15.99940
9021 OM 9021 OM OM1 9021 -0.550000 15.99940
9022 OM 9022 OM OM1 9022 -0.550000 15.99940
9023 OM 9023 OM OM1 9023 -0.550000 15.99940
9024 OM 9024 OM OM1 9024 -0.550000 15.99940
9025 OM 9025 OM OM1 9025 -0.550000 15.99940
9026 OM 9026 OM OM1 9026 -0.550000 15.99940
9027 OM 9027 OM OM1 9027 -0.550000 15.99940
9028 OM 9028 OM OM1 9028 -0.550000 15.99940
9029 OM 9029 OM OM1 9029 -0.550000 15.99940
9030 OM 9030 OM OM1 9030 -0.550000 15.99940
9031 OM 9031 OM OM1 9031 -0.550000 15.99940
9032 OM 9032 OM OM1 9032 -0.550000 15.99940
9033 OM 9033 OM OM1 9033 -0.550000 15.99940
9034 OM 9034 OM OM1 9034 -0.550000 15.99940
9035 OM 9035 OM OM1 9035 -0.550000 15.99940
9036 OM 9036 OM OM1 9036 -0.550000 15.99940
9037 OM 9037 OM OM1 9037 -0.550000 15.99940
9038 OM 9038 OM OM1 9038 -0.550000 15.99940
9039 OM 9039 OM OM1 9039 -0.550000 15.99940
9040 OM 9040 OM OM1 9040 -0.550000 15.99940
9041 OM 9041 OM OM1 9041 -0.550000 15.99940
9042 OM 9042 OM OM1 9042 -0.550000 15.99940
9043 OM 9043 OM OM1 9043 -0.550000 15.99940
9044 OM 9044 OM OM1 9044 -0.550000 15.99940
9045 OM 9045 OM OM1 9045 -0.550000 15.99940
9046 OM 9046 OM OM1 9046 -0.550000 15.99940
9047 OM 9047 OM OM1 9047 -0.550000 15.99940
9048 OM 9048 OM OM1 9048 -0.550000 15.99940
9049 OM 9049 OM OM1 9049 -0.550000 15.99940
9050 OM 9050 OM OM1 9050 -0.550000 15.99940
9051 OM 9051 OM OM1 9051 -0.550000 15.99940
9052 OM 9052 OM OM1 9052 -0.550000 15.99940
9053 OM 9053 OM OM1 9053 -0.550000 15.99940
9054 OM 9054 OM OM1 9054 -0.550000 15.99940
9055 OM 9055 OM OM1 9055 -0.550000 15.99940
9056 OM 9056 OM OM1 9056 -0.550000 15.99940
9057 OM 9057 OM OM1 9057 -0.550000 15.99940
9058 OM 9058 OM OM1 9058 -0.550000 15.99940
9059 OM 9059 OM OM1 9059 -0.550000 15.99940
9060 OM 9060 OM OM1 9060 -0.550000 15.99940
9061 OM 9061 OM OM1 9061 -0.550000 15.99940
9062 OM 9062 OM OM1 9062 -0.550000 15.99940
9063 OM 9063 OM OM1 9063 -0.550000 15.99940
9064 OM 9064 OM OM1 9064 -0.550000 15.99940
9065 OM 9065 OM OM1 9065 -0.550000 15.99940
9066 OM 9066 OM OM1 9066 -0.550000 15.99940
9067 OM 9067 OM OM1 9067 -0.550000 15.99940
9068 OM 9068 OM OM1 9068 -0.550000 15.99940
9069 OM 9069 OM OM1 9069 -0.550000 15.99940
9070 OM 9070 OM OM1 9070 -0.550000 15.99940
9071 OM 9071 OM OM1 9071 -0.550000 15.99940
9072 OM 9072 OM OM1 9072 -0.550000 15.99940
9073 OM 9073 OM OM1 9073 -0.550000 15.99940
9074 OM 9074 OM OM1 9074 -0.550000 15.99940
9075 OM 9075 OM OM1 9075 -0.550000 15.99940
9076 OM 9076 OM OM1 9076 -0.550000 15.99940
9077 OM 9077 OM OM1 9077 -0.550000 15.99940
9078 OM 9078 OM OM1 9078 -0.550000 15.99940
9079 OM 9079 OM OM1 9079 -0.550000 15.99940
9080 OM 9080 OM OM1 9080 -0.550000 15.99940
9081 OM 9081 OM OM1 9081 -0.550000 15.99940
9082 OM 9082 OM OM1 9082 -0.550000 15.99940
9083 OM 9083 OM OM1 9083 -0.550000 15.99940
9084 OM 9084 OM OM1 9084 -0.550000 15.99940
9085 OM 9085 OM OM1 9085 -0.550000 15.99940
9086 OM 9086 OM OM1 9086 -0.550000 15.99940
9087 OM 9087 OM OM1 9087 -0.550000 15.99940
9088 OM 9088 OM OM1 9088 -0.550000 15.99940
9089 OM 9089 OM OM1 9089 -0.550000 15.99940
9090 OM 9090 OM OM1 9090 -0.550000 15.99940
9091 OM 9091 OM OM1 9091 -0.550000 15.99940
9092 OM 9092 OM OM1 9092 -0.550000 15.99940
9093 OM 9093 OM OM1 9093 -0.550000 15.99940
9094 OM 9094 OM OM1 9094 -0.550000 15.99940
9095 OM 9095 OM OM1 9095 -0.550000 15.99940
9096 OM 9096 OM OM1 9096 -0.550000 15.99940
9097 OM 9097 OM OM1 9097 -0.550000 15.99940
9098 OM 9098 OM OM1 9098 -0.550000 15.99940
9099 OM 9099 OM OM1 9099 -0.550000 15.99940
9100 OM 9100 OM OM1 9100 -0.550000 15.99940
9101 OM 9101 OM OM1 9101 -0.550000 15.99940
9102 OM 9102 OM OM1 9102 -0.550000 15.99940
9103 OM 9103 OM OM1 9103 -0.550000 15.99940
9104 OM 9104 OM OM1 9104 -0.550000 15.99940
9105 OM 9105 OM OM1 9105 -0.550000 15.99940
9106 OM 9106 OM OM1 9106 -0.550000 15.99940
9107 OM 9107 OM OM1 9107 -0.550000 15.99940
9108 OM 9108 OM OM1 9108 -0.550000 15.99940
9109 OM 9109 OM OM1 9109 -0.550000 15.99940
9110 OM 9110 OM OM1 9110 -0.550000 15.99940
9111 OM 9111 OM OM1 9111 -0.550000 15.99940
9112 OM 9112 OM OM1 9112 -0.550000 15.99940
9113 OM 9113 OM OM1 9113 -0.550000 15.99940
9114 OM 9114 OM OM1 9114 -0.550000 15.99940
9115 OM 9115 OM OM1 9115 -0.550000 15.99940
9116 OM 9116 OM OM1 9116 -0.550000 15.99940
9117 OM 9117 OM OM1 9117 -0.550000 15.99940
9118 OM 9118 OM OM1 9118 -0.550000 15.99940
9119 OM 9119 OM OM1 9119 -0.550000 15.99940
9120 OM 9120 OM OM1 9120 -0.550000 15.99940
9121 OM 9121 OM OM1 9121 -0.550000 15.99940
9122 OM 9122 OM OM1 9122 -0.550000 15.99940
9123 OM 9123 OM OM1 9123 -0.550000 15.99940
9124 OM 9124 OM OM1 9124 -0.550000 15.99940
9125 OM 9125 OM OM1 9125 -0.550000 15.99940
9126 OM 9126 OM OM1 9126 -0.550000 15.99940
9127 OM 9127 OM OM1 9127 -0.550000 15.99940
9128 OM 9128 OM OM1 9128 -0.550000 15.99940
9129 OM 9129 OM OM1 9129 -0.550000 15.99940
9130 OM 9130 OM OM1 9130 -0.550000 15.99940
9131 OM 9131 OM OM1 9131 -0.550000 15.99940
9132 OM 9132 OM OM1 9132 -0.550000 15.99940
9133 OM 9133 OM OM1 9133 -0.550000 15.99940
9134 OM 9134 OM OM1 9134 -0.550000 15.99940
9135 OM 9135 OM OM1 9135 -0.550000 15.99940
9136 OM 9136 OM OM1 9136 -0.550000 15.99940
9137 OM 9137 OM OM1 9137 -0.550000 15.99940
9138 OM 9138 OM OM1 9138 -0.550000 15.99940
9139 OM 9139 OM OM1 9139 -0.550000 15.99940
9140 OM 9140 OM OM1 9140 -0.550000 15.99940
9141 OM 9141 OM OM1 9141 -0.550000 15.99940
9142 OM 9142 OM OM1 9142 -0.550000 15.99940
9143 OM 9143 OM OM1 9143 -0.550000 15.99940
9144 OM 9144 OM OM1 9144 -0.550000 15.99940
9145 OM 9145 OM OM1 9145 -0.550000 15.99940
9146 OM 9146 OM OM1 9146 -0.550000 15.99940
9147 OM 9147 OM OM1 9147 -0.550000 15.99940
9148 OM 9148 OM OM1 9148 -0.550000 15.99940
9149 OM 9149 OM OM1 9149 -0.550000 15.99940
9150 OM 9150 OM OM1 9150 -0.550000 15.99940
9151 OM 9151 OM OM1 9151 -0.550000 15.99940
9152 OM 9152 OM OM1 9152 -0.550000 15.99940
9153 OM 9153 OM OM1 9153 -0.550000 15.99940
9154 OM 9154 OM OM1 9154 -0.550000 15.99940
9155 OM 9155 OM OM1 9155 -0.550000 15.99940
9156 OM 9156 OM OM1 9156 -0.550000 15.99940
9157 OM 9157 OM OM1 9157 -0.550000 15.99940
9158 OM 9158 OM OM1 9158 -0.550000 15.99940
9159 OM 9159 OM OM1 9159 -0.550000 15.99940
9160 OM 9160 OM OM1 9160 -0.550000 15.99940
9161 OM 9161 OM OM1 9161 -0.550000 15.99940
9162 OM 9162 OM OM1 9162 -0.550000 15.99940
9163 OM 9163 OM OM1 9163 -0.550000 15.99940
9164 OM 9164 OM OM1 9164 -0.550000 15.99940
9165 OM 9165 OM OM1 9165 -0.550000 15.99940
9166 OM 9166 OM OM1 9166 -0.550000 15.99940
9167 OM 9167 OM OM1 9167 -0.550000 15.99940
9168 OM 9168 OM OM1 9168 -0.550000 15.99940
9169 OM 9169 OM OM1 9169 -0.550000 15.99940
9170 OM 9170 OM OM1 9170 -0.550000 15.99940
9171 OM 9171 OM OM1 9171 -0.550000 15.99940
9172 OM 9172 OM OM1 9172 -0.550000 15.99940
9173 OM 9173 OM OM1 9173 -0.550000 15.99940
9174 OM 9174 OM OM1 9174 -0.550000 15.99940
9175 OM 9175 OM OM1 9175 -0.550000 15.99940
9176 OM 9176 OM OM1 9176 -0.550000 15.99940
9177 OM 9177 OM OM1 9177 -0.550000 15.99940
9178 OM 9178 OM OM1 9178 -0.550000 15.99940
9179 OM 9179 OM OM1 9179 -0.550000 15.99940
9180 OM 9180 OM OM1 9180 -0.550000 15.99940
9181 OM 9181 OM OM1 9181 -0.550000 15.99940
9182 OM 9182 OM OM1 9182 -0.550000 15.99940
9183 OM 9183 OM OM1 9183 -0.550000 15.99940
9184 OM 9184 OM OM1 9184 -0.550000 15.99940
9185 OM 9185 OM OM1 9185 -0.550000 15.99940
9186 OM 9186 OM OM1 9186 -0.550000 15.99940
9187 OM 9187 OM OM1 9187 -0.550000 15.99940
9188 OM 9188 OM OM1 9188 -0.550000 15.99940
9189 OM 9189 OM OM1 9189 -0.550000 15.99940
9190 OM 9190 OM OM1 9190 -0.550000 15.99940
9191 OM 9191 OM OM1 9191 -0.550000 15.99940
9192 OM 9192 OM OM1 9192 -0.550000 15.99940
9193 OM 9193 OM OM1 9193 -0.550000 15.99940
9194 OM 9194 OM OM1 9194 -0.550000 15.99940
9195 OM 9195 OM OM1 9195 -0.550000 15.99940
9196 OM 9196 OM OM1 9196 -0.550000 15.99940
9197 OM 9197 OM OM1 9197 -0.550000 15.99940
9198 OM 9198 OM OM1 9198 -0.550000 15.99940
9199 OM 9199 OM OM1 9199 -0.550000 15.99940
9200 OM 9200 OM OM1 9200 -0.550000 15.99940
9201 OM 9201 OM OM1 9201 -0.550000 15.99940
9202 OM 9202 OM OM1 9202 -0.550000 15.99940
9203 OM 9203 OM OM1 9203 -0.550000 15.99940
9204 OM 9204 OM OM1 9204 -0.550000 15.99940
9205 OM 9205 OM OM1 9205 -0.550000 15.99940
9206 OM 9206 OM OM1 9206 -0.550000 15.99940
9207 OM 9207 OM OM1 9207 -0.550000 15.99940
9208 OM 9208 OM OM1 9208 -0.550000 15.99940
9209 OM 9209 OM OM1 9209 -0.550000 15.99940
9210 OM 9210 OM OM1 9210 -0.550000 15.99940
9211 OM 9211 OM OM1 9211 -0.550000 15.99940
9212 OM 9212 OM OM1 9212 -0.550000 15.99940
9213 OM 9213 OM OM1 9213 -0.550000 15.99940
9214 OM 9214 OM OM1 9214 -0.550000 15.99940
9215 OM 9215 OM OM1 9215 -0.550000 15.99940
9216 OM 9216 OM OM1 9216 -0.550000 15.99940
9217 OM 9217 OM OM1 9217 -0.550000 15.99940
9218 OM 9218 OM OM1 9218 -0.550000 15.99940
9219 OM 9219 OM OM1 9219 -0.550000 15.99940
9220 OM 9220 OM OM1 9220 -0.550000 15.99940
9221 OM 9221 OM OM1 9221 -0.550000 15.99940
9222 OM 9222 OM OM1 9222 -0.550000 15.99940
9223 OM 9223 OM OM1 9223 -0.550000 15.99940
9224 OM 9224 OM OM1 9224 -0.550000 15.99940
9225 OM 9225 OM OM1 9225 -0.550000 15.99940
9226 OM 9226 OM OM1 9226 -0.550000 15.99940
9227 OM 9227 OM OM1 9227 -0.550000 15.99940
9228 OM 9228 OM OM1 9228 -0.550000 15.99940
9229 OM 9229 OM OM1 9229 -0.550000 15.99940
9230 OM 9230 OM OM1 9230 -0.550000 15.99940
9231 OM 9231 OM OM1 9231 -0.550000 15.99940
9232 OM 9232 OM OM1 9232 -0.550000 15.99940
9233 OM 9233 OM OM1 9233 -0.550000 15.99940
9234 OM 9234 OM OM1 9234 -0.550000 15.99940
9235 OM 9235 OM OM1 9235 -0.550000 15.99940
9236 OM 9236 OM OM1 9236 -0.550000 15.99940
9237 OM 9237 OM OM1 9237 -0.550000 15.99940
9238 OM 9238 OM OM1 9238 -0.550000 15.99940
9239 OM 9239 OM OM1 9239 -0.550000 15.99940
9240 OM 9240 OM OM1 9240 -0.550000 15.99940
9241 OM 9241 OM OM1 9241 -0.550000 15.99940
9242 OM 9242 OM OM1 9242 -0.550000 15.99940
9243 OM 9243 OM OM1 9243 -0.550000 15.99940
9244 OM 9244 OM OM1 9244 -0.550000 15.99940
9245 OM 9245 OM OM1 9245 -0.550000 15.99940
9246 OM 9246 OM OM1 9246 -0.550000 15.99940
9247 OM 9247 OM OM1 9247 -0.550000 15.99940
9248 OM 9248 OM OM1 9248 -0.550000 15.99940
9249 OM 9249 OM OM1 9249 -0.550000 15.99940
9250 OM 9250 OM OM1 9250 -0.550000 15.99940
9251 OM 9251 OM OM1 9251 -0.550000 15.99940
9252 OM 9252 OM OM1 9252 -0.550000 15.99940
9253 OM 9253 OM OM1 9253 -0.550000 15.99940
9254 OM 9254 OM OM1 9254 -0.550000 15.99940
9255 OM 9255 OM OM1 9255 -0.550000 15.99940
9256 OM 9256 OM OM1 9256 -0.550000 15.99940
9257 OM 9257 OM OM1 9257 -0.550000 15.99940
9258 OM 9258 OM OM1 9258 -0.550000 15.99940
9259 OM 9259 OM OM1 9259 -0.550000 15.99940
9260 OM 9260 OM OM1 9260 -0.550000 15.99940
9261 OM 9261 OM OM1 9261 -0.550000 15.99940
9262 OM 9262 OM OM1 9262 -0.550000 15.99940
9263 OM 9263 OM OM1 9263 -0.550000 15.99940
9264 OM 9264 OM OM1 9264 -0.550000 15.99940
9265 OM 9265 OM OM1 9265 -0.550000 15.99940
9266 OM 9266 OM OM1 9266 -0.550000 15.99940
9267 OM 9267 OM OM1 9267 -0.550000 15.99940
9268 OM 9268 OM OM1 9268 -0.550000 15.99940
9269 OM 9269 OM OM1 9269 -0.550000 15.99940
9270 OM 9270 OM OM1 9270 -0.550000 15.99940
9271 OM 9271 OM OM1 9271 -0.550000 15.99940
9272 OM 9272 OM OM1 9272 -0.550000 15.99940
9273 OM 9273 OM OM1 9273 -0.550000 15.99940
9274 OM 9274 OM OM1 9274 -0.550000 15.99940
9275 OM 9275 OM OM1 9275 -0.550000 15.99940
9276 OM 9276 OM OM1 9276 -0.550000 15.99940
9277 OM 9277 OM OM1 9277 -0.550000 15.99940
9278 OM 9278 OM OM1 9278 -0.550000 15.99940
9279 OM 9279 OM OM1 9279 -0.550000 15.99940
9280 OM 9280 OM OM1 9280 -0.550000 15.99940
9281 OM 9281 OM OM1 9281 -0.550000 15.99940
9282 OM 9282 OM OM1 9282 -0.550000 15.99940
9283 OM 9283 OM OM1 9283 -0.550000 15.99940
9284 OM 9284 OM OM1 9284 -0.550000 15.99940
9285 OM 9285 OM OM1 9285 -0.550000 15.99940
9286 OM 9286 OM OM1 9286 -0.550000 15.99940
9287 OM 9287 OM OM1 9287 -0.550000 15.99940
9288 OM 9288 OM OM1 9288 -0.550000 15.99940
9289 OM 9289 OM OM1 9289 -0.550000 15.99940
9290 OM 9290 OM OM1 9290 -0.550000 15.99940
9291 OM 9291 OM OM1 9291 -0.550000 15.99940
9292 OM 9292 OM OM1 9292 -0.550000 15.99940
9293 OM 9293 OM OM1 9293 -0.550000 15.99940
9294 OM 9294 OM OM1 9294 -0.550000 15.99940
9295 OM 9295 OM OM1 9295 -0.550000 15.99940
9296 OM 9296 OM OM1 9296 -0.550000 15.99940
9297 OM 9297 OM OM1 9297 -0.550000 15.99940
9298 OM 9298 OM OM1 9298 -0.550000 15.99940
9299 OM 9299 OM OM1 9299 -0.550000 15.99940
9300 OM 9300 OM OM1 9300 -0.550000 15.99940
9301 OM 9301 OM OM1 9301 -0.550000 15.99940
9302 OM 9302 OM OM1 9302 -0.550000 15.99940
9303 OM 9303 OM OM1 9303 -0.550000 15.99940
9304 OM 9304 OM OM1 9304 -0.550000 15.99940
9305 OM 9305 OM OM1 9305 -0.550000 15.99940
9306 OM 9306 OM OM1 9306 -0.550000 15.99940
9307 OM 9307 OM OM1 9307 -0.550000 15.99940
9308 OM 9308 OM OM1 9308 -0.550000 15.99940
9309 OM 9309 OM OM1 9309 -0.550000 15.99940
9310 OM 9310 OM OM1 9310 -0.550000 15.99940
9311 OM 9311 OM OM1 9311 -0.550000 15.99940
9312 OM 9312 OM OM1 9312 -0.550000 15.99940
9313 OM 9313 OM OM1 9313 -0.550000 15.99940
9314 OM 9314 OM OM1 9314 -0.550000 15.99940
9315 OM 9315 OM OM1 9315 -0.550000 15.99940
9316 OM 9316 OM OM1 9316 -0.550000 15.99940
9317 OM 9317 OM OM1 9317 -0.550000 15.99940
9318 OM 9318 OM OM1 9318 -0.550000 15.99940
9319 OM 9319 OM OM1 9319 -0.550000 15.99940
9320 OM 9320 OM OM1 9320 -0.550000 15.99940
9321 OM 9321 OM OM1 9321 -0.550000 15.99940
9322 OM 9322 OM OM1 9322 -0.550000 15.99940
9323 OM 9323 OM OM1 9323 -0.550000 15.99940
9324 OM 9324 OM OM1 9324 -0.550000 15.99940
9325 OM 9325 OM OM1 9325 -0.550000 15.99940
9326 OM 9326 OM OM1 9326 -0.550000 15.99940
9327 OM 9327 OM OM1 9327 -0.550000 15.99940
9328 OM 9328 OM OM1 9328 -0.550000 15.99940
9329 OM 9329 OM OM1 9329 -0.550000 15.99940
9330 OM 9330 OM OM1 9330 -0.550000 15.99940
9331 OM 9331 OM OM1 9331 -0.550000 15.99940
9332 OM 9332 OM OM1 9332 -0.550000 15.99940
9333 OM 9333 OM OM1 9333 -0.550000 15.99940
9334 OM 9334 OM OM1 9334 -0.550000 15.99940
9335 OM 9335 OM OM1 9335 -0.550000 15.99940
9336 OM 9336 OM OM1 9336 -0.550000 15.99940
9337 OM 9337 OM OM1 9337 -0.550000 15.99940
9338 OM 9338 OM OM1 9338 -0.550000 15.99940
9339 OM 9339 OM OM1 9339 -0.550000 15.99940
9340 OM 9340 OM OM1 9340 -0.550000 15.99940
9341 OM 9341 OM OM1 9341 -0.550000 15.99940
9342 OM 9342 OM OM1 9342 -0.550000 15.99940
9343 OM 9343 OM OM1 9343 -0.550000 15.99940
9344 OM 9344 OM OM1 9344 -0.550000 15.99940
9345 OM 9345 OM OM1 9345 -0.550000 15.99940
9346 OM 9346 OM OM1 9346 -0.550000 15.99940
9347 OM 9347 OM OM1 9347 -0.550000 15.99940
9348 OM 9348 OM OM1 9348 -0.550000 15.99940
9349 OM 9349 OM OM1 9349 -0.550000 15.99940
9350 OM 9350 OM OM1 9350 -0.550000 15.99940
9351 OM 9351 OM OM1 9351 -0.550000 15.99940
9352 OM 9352 OM OM1 9352 -0.550000 15.99940
9353 OM 9353 OM OM1 9353 -0.550000 15.99940
9354 OM 9354 OM OM1 9354 -0.550000 15.99940
9355 OM 9355 OM OM1 9355 -0.550000 15.99940
9356 OM 9356 OM OM1 9356 -0.550000 15.99940
9357 OM 9357 OM OM1 9357 -0.550000 15.99940
9358 OM 9358 OM OM1 9358 -0.550000 15.99940
9359 OM 9359 OM OM1 9359 -0.550000 15.99940
9360 OM 9360 OM OM1 9360 -0.550000 15.99940
9361 OM 9361 OM OM1 9361 -0.550000 15.99940
9362 OM 9362 OM OM1 9362 -0.550000 15.99940
9363 OM 9363 OM OM1 9363 -0.550000 15.99940
9364 OM 9364 OM OM1 9364 -0.550000 15.99940
9365 OM 9365 OM OM1 9365 -0.550000 15.99940
9366 OM 9366 OM OM1 9366 -0.550000 15.99940
9367 OM 9367 OM OM1 9367 -0.550000 15.99940
9368 OM 9368 OM OM1 9368 -0.550000 15.99940
9369 OM 9369 OM OM1 9369 -0.550000 15.99940
9370 OM 9370 OM OM1 9370 -0.550000 15.99940
9371 OM 9371 OM OM1 9371 -0.550000 15.99940
9372 OM 9372 OM OM1 9372 -0.550000 15.99940
9373 OM 9373 OM OM1 9373 -0.550000 15.99940
9374 OM 9374 OM OM1 9374 -0.550000 15.99940
9375 OM 9375 OM OM1 9375 -0.550000 15.99940
9376 OM 9376 OM OM1 9376 -0.550000 15.99940
9377 OM 9377 OM OM1 9377 -0.550000 15.99940
9378 OM 9378 OM OM1 9378 -0.550000 15.99940
9379 OM 9379 OM OM1 9379 -0.550000 15.99940
9380 OM 9380 OM OM1 9380 -0.550000 15.99940
9381 OM 9381 OM OM1 9381 -0.550000 15.99940
9382 OM 9382 OM OM1 9382 -0.550000 15.99940
9383 OM 9383 OM OM1 9383 -0.550000 15.99940
9384 OM 9384 OM OM1 9384 -0.550000 15.99940
9385 OM 9385 OM OM1 9385 -0.550000 15.99940
9386 OM 9386 OM OM1 9386 -0.550000 15.99940
9387 OM 9387 OM OM1 9387 -0.550000 15.99940
9388 OM 9388 OM OM1 9388 -0.550000 15.99940
9389 OM 9389 OM OM1 9389 -0.550000 15.99940
9390 OM 9390 OM OM1 9390 -0.550000 15.99940
9391 OM 9391 OM OM1 9391 -0.550000 15.99940
9392 OM 9392 OM OM1 9392 -0.550000 15.99940
9393 OM 9393 OM OM1 9393 -0.550000 15.99940
9394 OM 9394 OM OM1 9394 -0.550000 15.99940
9395 OM 9395 OM OM1 9395 -0.550000 15.99940
9396 OM 9396 OM OM1 9396 -0.550000 15.99940
9397 OM 9397 OM OM1 9397 -0.550000 15.99940
9398 OM 9398 OM OM1 9398 -0.550000 15.99940
9399 OM 9399 OM OM1 9399 -0.550000 15.99940
9400 OM 9400 OM OM1 9400 -0.550000 15.99940
9401 OM 9401 OM OM1 9401 -0.550000 15.99940
9402 OM 9402 OM OM1 9402 -0.550000 15.99940
9403 OM 9403 OM OM1 9403 -0.550000 15.99940
9404 OM 9404 OM OM1 9404 -0.550000 15.99940
9405 OM 9405 OM OM1 9405 -0.550000 15.99940
9406 OM 9406 OM OM1 9406 -0.550000 15.99940
9407 OM 9407 OM OM1 9407 -0.550000 15.99940
9408 OM 9408 OM OM1 9408 -0.550000 15.99940
9409 OM 9409 OM OM1 9409 -0.550000 15.99940
9410 OM 9410 OM OM1 9410 -0.550000 15.99940
9411 OM 9411 OM OM1 9411 -0.550000 15.99940
9412 OM 9412 OM OM1 9412 -0.550000 15.99940
9413 OM 9413 OM OM1 9413 -0.550000 15.99940
9414 OM 9414 OM OM1 9414 -0.550000 15.99940
9415 OM 9415 OM OM1 9415 -0.550000 15.99940
9416 OM 9416 OM OM1 9416 -0.550000 15.99940
9417 OM 9417 OM OM1 9417 -0.550000 15.99940
9418 OM 9418 OM OM1 9418 -0.550000 15.99940
9419 OM 9419 OM OM1 9419 -0.550000 15.99940
9420 OM 9420 OM OM1 9420 -0.550000 15.99940
9421 OM 9421 OM OM1 9421 -0.550000 15.99940
9422 OM 9422 OM OM1 9422 -0.550000 15.99940
9423 OM 9423 OM OM1 9423 -0.550000 15.99940
9424 OM 9424 OM OM1 9424 -0.550000 15.99940
9425 OM 9425 OM OM1 9425 -0.550000 15.99940
9426 OM 9426 OM OM1 9426 -0.550000 15.99940
9427 OM 9427 OM OM1 9427 -0.550000 15.99940
9428 OM 9428 OM OM1 9428 -0.550000 15.99940
9429 OM 9429 OM OM1 9429 -0.550000 15.99940
9430 OM 9430 OM OM1 9430 -0.550000 15.99940
9431 OM 9431 OM OM1 9431 -0.550000 15.99940
9432 OM 9432 OM OM1 9432 -0.550000 15.99940
9433 OM 9433 OM OM1 9433 -0.550000 15.99940
9434 OM 9434 OM OM1 9434 -0.550000 15.99940
9435 OM 9435 OM OM1 9435 -0.550000 15.99940
9436 OM 9436 OM OM1 9436 -0.550000 15.99940
9437 OM 9437 OM OM1 9437 -0.550000 15.99940
9438 OM 9438 OM OM1 9438 -0.550000 15.99940
9439 OM 9439 OM OM1 9439 -0.550000 15.99940
9440 OM 9440 OM OM1 9440 -0.550000 15.99940
9441 OM 9441 OM OM1 9441 -0.550000 15.99940
9442 OM 9442 OM OM1 9442 -0.550000 15.99940
9443 OM 9443 OM OM1 9443 -0.550000 15.99940
9444 OM 9444 OM OM1 9444 -0.550000 15.99940
9445 OM 9445 OM OM1 9445 -0.550000 15.99940
9446 OM 9446 OM OM1 9446 -0.550000 15.99940
9447 OM 9447 OM OM1 9447 -0.550000 15.99940
9448 OM 9448 OM OM1 9448 -0.550000 15.99940
9449 OM 9449 OM OM1 9449 -0.550000 15.99940
9450 OM 9450 OM OM1 9450 -0.550000 15.99940
9451 OM 9451 OM OM1 9451 -0.550000 15.99940
9452 OM 9452 OM OM1 9452 -0.550000 15.99940
9453 OM 9453 OM OM1 9453 -0.550000 15.99940
9454 OM 9454 OM OM1 9454 -0.550000 15.99940
9455 OM 9455 OM OM1 9455 -0.550000 15.99940
9456 OM 9456 OM OM1 9456 -0.550000 15.99940
9457 OM 9457 OM OM1 9457 -0.550000 15.99940
9458 OM 9458 OM OM1 9458 -0.550000 15.99940
9459 OM 9459 OM OM1 9459 -0.550000 15.99940
9460 OM 9460 OM OM1 9460 -0.550000 15.99940
9461 OM 9461 OM OM1 9461 -0.550000 15.99940
9462 OM 9462 OM OM1 9462 -0.550000 15.99940
9463 OM 9463 OM OM1 9463 -0.550000 15.99940
9464 OM 9464 OM OM1 9464 -0.550000 15.99940
9465 OM 9465 OM OM1 9465 -0.550000 15.99940
9466 OM 9466 OM OM1 9466 -0.550000 15.99940
9467 OM 9467 OM OM1 9467 -0.550000 15.99940
9468 OM 9468 OM OM1 9468 -0.550000 15.99940
9469 OM 9469 OM OM1 9469 -0.550000 15.99940
9470 OM 9470 OM OM1 9470 -0.550000 15.99940
9471 OM 9471 OM OM1 9471 -0.550000 15.99940
9472 OM 9472 OM OM1 9472 -0.550000 15.99940
9473 OM 9473 OM OM1 9473 -0.550000 15.99940
9474 OM 9474 OM OM1 9474 -0.550000 15.99940
9475 OM 9475 OM OM1 9475 -0.550000 15.99940
9476 OM 9476 OM OM1 9476 -0.550000 15.99940
9477 OM 9477 OM OM1 9477 -0.550000 15.99940
9478 OM 9478 OM OM1 9478 -0.550000 15.99940
9479 OM 9479 OM OM1 9479 -0.550000 15.99940
9480 OM 9480 OM OM1 9480 -0.550000 15.99940
9481 OM 9481 OM OM1 9481 -0.550000 15.99940
9482 OM 9482 OM OM1 9482 -0.550000 15.99940
9483 OM 9483 OM OM1 9483 -0.550000 15.99940
9484 OM 9484 OM OM1 9484 -0.550000 15.99940
9485 OM 9485 OM OM1 9485 -0.550000 15.99940
9486 OM 9486 OM OM1 9486 -0.550000 15.99940
9487 OM 9487 OM OM1 9487 -0.550000 15.99940
9488 OM 9488 OM OM1 9488 -0.550000 15.99940
9489 OM 9489 OM OM1 9489 -0.550000 15.99940
9490 OM 9490 OM OM1 9490 -0.550000 15.99940
9491 OM 9491 OM OM1 9491 -0.550000 15.99940
9492 OM 9492 OM OM1 9492 -0.550000 15.99940
9493 OM 9493 OM OM1 9493 -0.550000 15.99940
9494 OM 9494 OM OM1 9494 -0.550000 15.99940
9495 OM 9495 OM OM1 9495 -0.550000 15.99940
9496 OM 9496 OM OM1 9496 -0.550000 15.99940
9497 OM 9497 OM OM1 9497 -0.550000 15.99940
9498 OM 9498 OM OM1 9498 -0.550000 15.99940
9499 OM 9499 OM OM1 9499 -0.550000 15.99940
9500 OM 9500 OM OM1 9500 -0.550000 15.99940
9501 OM 9501 OM OM1 9501 -0.550000 15.99940
9502 OM 9502 OM OM1 9502 -0.550000 15.99940
9503 OM 9503 OM OM1 9503 -0.550000 15.99940
9504 OM 9504 OM OM1 9504 -0.550000 15.99940
9505 OM 9505 OM OM1 9505 -0.550000 15.99940
9506 OM 9506 OM OM1 9506 -0.550000 15.99940
9507 OM 9507 OM OM1 9507 -0.550000 15.99940
9508 OM 9508 OM OM1 9508 -0.550000 15.99940
9509 OM 9509 OM OM1 9509 -0.550000 15.99940
9510 OM 9510 OM OM1 9510 -0.550000 15.99940
9511 OM 9511 OM OM1 9511 -0.550000 15.99940
9512 OM 9512 OM OM1 9512 -0.550000 15.99940
9513 OM 9513 OM OM1 9513 -0.550000 15.99940
9514 OM 9514 OM OM1 9514 -0.550000 15.99940
9515 OM 9515 OM OM1 9515 -0.550000 15.99940
9516 OM 9516 OM OM1 9516 -0.550000 15.99940
9517 OM 9517 OM OM1 9517 -0.550000 15.99940
9518 OM 9518 OM OM1 9518 -0.550000 15.99940
9519 OM 9519 OM OM1 9519 -0.550000 15.99940
9520 OM 9520 OM OM1 9520 -0.550000 15.99940
9521 OM 9521 OM OM1 9521 -0.550000 15.99940
9522 OM 9522 OM OM1 9522 -0.550000 15.99940
9523 OM 9523 OM OM1 9523 -0.550000 15.99940
9524 OM 9524 OM OM1 9524 -0.550000 15.99940
9525 OM 9525 OM OM1 9525 -0.550000 15.99940
9526 OM 9526 OM OM1 9526 -0.550000 15.99940
9527 OM 9527 OM OM1 9527 -0.550000 15.99940
9528 OM 9528 OM OM1 9528 -0.550000 15.99940
9529 OM 9529 OM OM1 9529 -0.550000 15.99940
9530 OM 9530 OM OM1 9530 -0.550000 15.99940
9531 OM 9531 OM OM1 9531 -0.550000 15.99940
9532 OM 9532 OM OM1 9532 -0.550000 15.99940
9533 OM 9533 OM OM1 9533 -0.550000 15.99940
9534 OM 9534 OM OM1 9534 -0.550000 15.99940
9535 OM 9535 OM OM1 9535 -0.550000 15.99940
9536 OM 9536 OM OM1 9536 -0.550000 15.99940
9537 OM 9537 OM OM1 9537 -0.550000 15.99940
9538 OM 9538 OM OM1 9538 -0.550000 15.99940
9539 OM 9539 OM OM1 9539 -0.550000 15.99940
9540 OM 9540 OM OM1 9540 -0.550000 15.99940
9541 OM 9541 OM OM1 9541 -0.550000 15.99940
9542 OM 9542 OM OM1 9542 -0.550000 15.99940
9543 OM 9543 OM OM1 9543 -0.550000 15.99940
9544 OM 9544 OM OM1 9544 -0.550000 15.99940
9545 OM 9545 OM OM1 9545 -0.550000 15.99940
9546 OM 9546 OM OM1 9546 -0.550000 15.99940
9547 OM 9547 OM OM1 9547 -0.550000 15.99940
9548 OM 9548 OM OM1 9548 -0.550000 15.99940
9549 OM 9549 OM OM1 9549 -0.550000 15.99940
9550 OM 9550 OM OM1 9550 -0.550000 15.99940
9551 OM 9551 OM OM1 9551 -0.550000 15.99940
9552 OM 9552 OM OM1 9552 -0.550000 15.99940
9553 OM 9553 OM OM1 9553 -0.550000 15.99940
9554 OM 9554 OM OM1 9554 -0.550000 15.99940
9555 OM 9555 OM OM1 9555 -0.550000 15.99940
9556 OM 9556 OM OM1 9556 -0.550000 15.99940
9557 OM 9557 OM OM1 9557 -0.550000 15.99940
9558 OM 9558 OM OM1 9558 -0.550000 15.99940
9559 OM 9559 OM OM1 9559 -0.550000 15.99940
9560 OM 9560 OM OM1 9560 -0.550000 15.99940
9561 OM 9561 OM OM1 9561 -0.550000 15.99940
9562 OM 9562 OM OM1 9562 -0.550000 15.99940
9563 OM 9563 OM OM1 9563 -0.550000 15.99940
9564 OM 9564 OM OM1 9564 -0.550000 15.99940
9565 OM 9565 OM OM1 9565 -0.550000 15.99940
9566 OM 9566 OM OM1 9566 -0.550000 15.99940
9567 OM 9567 OM OM1 9567 -0.550000 15.99940
9568 OM 9568 OM OM1 9568 -0.550000 15.99940
9569 OM 9569 OM OM1 9569 -0.550000 15.99940
9570 OM 9570 OM OM1 9570 -0.550000 15.99940
9571 OM 9571 OM OM1 9571 -0.550000 15.99940
9572 OM 9572 OM OM1 9572 -0.550000 15.99940
9573 OM 9573 OM OM1 9573 -0.550000 15.99940
9574 OM 9574 OM OM1 9574 -0.550000 15.99940
9575 OM 9575 OM OM1 9575 -0.550000 15.99940
9576 OM 9576 OM OM1 9576 -0.550000 15.99940
9577 OM 9577 OM OM1 9577 -0.550000 15.99940
9578 OM 9578 OM OM1 9578 -0.550000 15.99940
9579 OM 9579 OM OM1 9579 -0.550000 15.99940
9580 OM 9580 OM OM1 9580 -0.550000 15.99940
9581 OM 9581 OM OM1 9581 -0.550000 15.99940
9582 OM 9582 OM OM1 9582 -0.550000 15.99940
9583 OM 9583 OM OM1 9583 -0.550000 15.99940
9584 OM 9584 OM OM1 9584 -0.550000 15.99940
9585 OM 9585 OM OM1 9585 -0.550000 15.99940
9586 OM 9586 OM OM1 9586 -0.550000 15.99940
9587 OM 9587 OM OM1 9587 -0.550000 15.99940
9588 OM 9588 OM OM1 9588 -0.550000 15.99940
9589 OM 9589 OM OM1 9589 -0.550000 15.99940
9590 OM 9590 OM OM1 9590 -0.550000 15.99940
9591 OM 9591 OM OM1 9591 -0.550000 15.99940
9592 OM 9592 OM OM1 9592 -0.550000 15.99940
9593 OM 9593 OM OM1 9593 -0.550000 15.99940
9594 OM 9594 OM OM1 9594 -0.550000 15.99940
9595 OM 9595 OM OM1 9595 -0.550000 15.99940
9596 OM 9596 OM OM1 9596 -0.550000 15.99940
9597 OM 9597 OM OM1 9597 -0.550000 15.99940
9598 OM 9598 OM OM1 9598 -0.550000 15.99940
9599 OM 9599 OM OM1 9599 -0.550000 15.99940
9600 OM 9600 OM OM1 9600 -0.550000 15.99940
9601 OM 9601 OM OM1 9601 -0.550000 15.99940
9602 OM 9602 OM OM1 9602 -0.550000 15.99940
9603 OM 9603 OM OM1 9603 -0.550000 15.99940
9604 OM 9604 OM OM1 9604 -0.550000 15.99940
9605 OM 9605 OM OM1 9605 -0.550000 15.99940
9606 OM 9606 OM OM1 9606 -0.550000 15.99940
9607 OM 9607 OM OM1 9607 -0.550000 15.99940
9608 OM 9608 OM OM1 9608 -0.550000 15.99940
9609 OM 9609 OM OM1 9609 -0.550000 15.99940
9610 OM 9610 OM OM1 9610 -0.550000 15.99940
9611 OM 9611 OM OM1 9611 -0.550000 15.99940
9612 OM 9612 OM OM1 9612 -0.550000 15.99940
9613 OM 9613 OM OM1 9613 -0.550000 15.99940
9614 OM 9614 OM OM1 9614 -0.550000 15.99940
9615 OM 9615 OM OM1 9615 -0.550000 15.99940
9616 OM 9616 OM OM1 9616 -0.550000 15.99940
9617 OM 9617 OM OM1 9617 -0.550000 15.99940
9618 OM 9618 OM OM1 9618 -0.550000 15.99940
9619 OM 9619 OM OM1 9619 -0.550000 15.99940
9620 OM 9620 OM OM1 9620 -0.550000 15.99940
9621 OM 9621 OM OM1 9621 -0.550000 15.99940
9622 OM 9622 OM OM1 9622 -0.550000 15.99940
9623 OM 9623 OM OM1 9623 -0.550000 15.99940
9624 OM 9624 OM OM1 9624 -0.550000 15.99940
9625 OM 9625 OM OM1 9625 -0.550000 15.99940
9626 OM 9626 OM OM1 9626 -0.550000 15.99940
9627 OM 9627 OM OM1 9627 -0.550000 15.99940
9628 OM 9628 OM OM1 9628 -0.550000 15.99940
9629 OM 9629 OM OM1 9629 -0.550000 15.99940
9630 OM 9630 OM OM1 9630 -0.550000 15.99940
9631 OM 9631 OM OM1 9631 -0.550000 15.99940
9632 OM 9632 OM OM1 9632 -0.550000 15.99940
9633 OM 9633 OM OM1 9633 -0.550000 15.99940
9634 OM 9634 OM OM1 9634 -0.550000 15.99940
9635 OM 9635 OM OM1 9635 -0.550000 15.99940
9636 OM 9636 OM OM1 9636 -0.550000 15.99940
9637 OM 9637 OM OM1 9637 -0.550000 15.99940
9638 OM 9638 OM OM1 9638 -0.550000 15.99940
9639 OM 9639 OM OM1 9639 -0.550000 15.99940
9640 OM 9640 OM OM1 9640 -0.550000 15.99940
9641 OM 9641 OM OM1 9641 -0.550000 15.99940
9642 OM 9642 OM OM1 9642 -0.550000 15.99940
9643 OM 9643 OM OM1 9643 -0.550000 15.99940
9644 OM 9644 OM OM1 9644 -0.550000 15.99940
9645 OM 9645 OM OM1 9645 -0.550000 15.99940
9646 OM 9646 OM OM1 9646 -0.550000 15.99940
9647 OM 9647 OM OM1 9647 -0.550000 15.99940
9648 OM 9648 OM OM1 9648 -0.550000 15.99940
9649 OM 9649 OM OM1 9649 -0.550000 15.99940
9650 OM 9650 OM OM1 9650 -0.550000 15.99940
9651 OM 9651 OM OM1 9651 -0.550000 15.99940
9652 OM 9652 OM OM1 9652 -0.550000 15.99940
9653 OM 9653 OM OM1 9653 -0.550000 15.99940
9654 OM 9654 OM OM1 9654 -0.550000 15.99940
9655 OM 9655 OM OM1 9655 -0.550000 15.99940
9656 OM 9656 OM OM1 9656 -0.550000 15.99940
9657 OM 9657 OM OM1 9657 -0.550000 15.99940
9658 OM 9658 OM OM1 9658 -0.550000 15.99940
9659 OM 9659 OM OM1 9659 -0.550000 15.99940
9660 OM 9660 OM OM1 9660 -0.550000 15.99940
9661 OM 9661 OM OM1 9661 -0.550000 15.99940
9662 OM 9662 OM OM1 9662 -0.550000 15.99940
9663 OM 9663 OM OM1 9663 -0.550000 15.99940
9664 OM 9664 OM OM1 9664 -0.550000 15.99940
9665 OM 9665 OM OM1 9665 -0.550000 15.99940
9666 OM 9666 OM OM1 9666 -0.550000 15.99940
9667 OM 9667 OM OM1 9667 -0.550000 15.99940
9668 OM 9668 OM OM1 9668 -0.550000 15.99940
9669 OM 9669 OM OM1 9669 -0.550000 15.99940
9670 OM 9670 OM OM1 9670 -0.550000 15.99940
9671 OM 9671 OM OM1 9671 -0.550000 15.99940
9672 OM 9672 OM OM1 9672 -0.550000 15.99940
9673 OM 9673 OM OM1 9673 -0.550000 15.99940
9674 OM 9674 OM OM1 9674 -0.550000 15.99940
9675 OM 9675 OM OM1 9675 -0.550000 15.99940
9676 OM 9676 OM OM1 9676 -0.550000 15.99940
9677 OM 9677 OM OM1 9677 -0.550000 15.99940
9678 OM 9678 OM OM1 9678 -0.550000 15.99940
9679 OM 9679 OM OM1 9679 -0.550000 15.99940
9680 OM 9680 OM OM1 9680 -0.550000 15.99940
9681 OM 9681 OM OM1 9681 -0.550000 15.99940
9682 OM 9682 OM OM1 9682 -0.550000 15.99940
9683 OM 9683 OM OM1 9683 -0.550000 15.99940
9684 OM 9684 OM OM1 9684 -0.550000 15.99940
9685 OM 9685 OM OM1 9685 -0.550000 15.99940
9686 OM 9686 OM OM1 9686 -0.550000 15.99940
9687 OM 9687 OM OM1 9687 -0.550000 15.99940
9688 OM 9688 OM OM1 9688 -0.550000 15.99940
9689 OM 9689 OM OM1 9689 -0.550000 15.99940
9690 OM 9690 OM OM1 9690 -0.550000 15.99940
9691 OM 9691 OM OM1 9691 -0.550000 15.99940
9692 OM 9692 OM OM1 9692 -0.550000 15.99940
9693 OM 9693 OM OM1 9693 -0.550000 15.99940
9694 OM 9694 OM OM1 9694 -0.550000 15.99940
9695 OM 9695 OM OM1 9695 -0.550000 15.99940
9696 OM 9696 OM OM1 9696 -0.550000 15.99940
9697 OM 9697 OM OM1 9697 -0.550000 15.99940
9698 OM 9698 OM OM1 9698 -0.550000 15.99940
9699 OM 9699 OM OM1 9699 -0.550000 15.99940
9700 OM 9700 OM OM1 9700 -0.550000 15.99940
9701 OM 9701 OM OM1 9701 -0.550000 15.99940
9702 OM 9702 OM OM1 9702 -0.550000 15.99940
9703 OM 9703 OM OM1 9703 -0.550000 15.99940
9704 OM 9704 OM OM1 9704 -0.550000 15.99940
9705 OM 9705 OM OM1 9705 -0.550000 15.99940
9706 OM 9706 OM OM1 9706 -0.550000 15.99940
9707 OM 9707 OM OM1 9707 -0.550000 15.99940
9708 OM 9708 OM OM1 9708 -0.550000 15.99940
9709 OM 9709 OM OM1 9709 -0.550000 15.99940
9710 OM 9710 OM OM1 9710 -0.550000 15.99940
9711 OM 9711 OM OM1 9711 -0.550000 15.99940
9712 OM 9712 OM OM1 9712 -0.550000 15.99940
9713 OM 9713 OM OM1 9713 -0.550000 15.99940
9714 OM 9714 OM OM1 9714 -0.550000 15.99940
9715 OM 9715 OM OM1 9715 -0.550000 15.99940
9716 OM 9716 OM OM1 9716 -0.550000 15.99940
9717 OM 9717 OM OM1 9717 -0.550000 15.99940
9718 OM 9718 OM OM1 9718 -0.550000 15.99940
9719 OM 9719 OM OM1 9719 -0.550000 15.99940
9720 OM 9720 OM OM1 9720 -0.550000 15.99940
9721 OM 9721 OM OM1 9721 -0.550000 15.99940
9722 OM 9722 OM OM1 9722 -0.550000 15.99940
9723 OM 9723 OM OM1 9723 -0.550000 15.99940
9724 OM 9724 OM OM1 9724 -0.550000 15.99940
9725 OM 9725 OM OM1 9725 -0.550000 15.99940
9726 OM 9726 OM OM1 9726 -0.550000 15.99940
9727 OM 9727 OM OM1 9727 -0.550000 15.99940
9728 OM 9728 OM OM1 9728 -0.550000 15.99940
9729 OM 9729 OM OM1 9729 -0.550000 15.99940
9730 OM 9730 OM OM1 9730 -0.550000 15.99940
9731 OM 9731 OM OM1 9731 -0.550000 15.99940
9732 OM 9732 OM OM1 9732 -0.550000 15.99940
9733 OM 9733 OM OM1 9733 -0.550000 15.99940
9734 OM 9734 OM OM1 9734 -0.550000 15.99940
9735 OM 9735 OM OM1 9735 -0.550000 15.99940
9736 OM 9736 OM OM1 9736 -0.550000 15.99940
9737 OM 9737 OM OM1 9737 -0.550000 15.99940
9738 OM 9738 OM OM1 9738 -0.550000 15.99940
9739 OM 9739 OM OM1 9739 -0.550000 15.99940
9740 OM 9740 OM OM1 9740 -0.550000 15.99940
9741 OM 9741 OM OM1 9741 -0.550000 15.99940
9742 OM 9742 OM OM1 9742 -0.550000 15.99940
9743 OM 9743 OM OM1 9743 -0.550000 15.99940
9744 OM 9744 OM OM1 9744 -0.550000 15.99940
9745 OM 9745 OM OM1 9745 -0.550000 15.99940
9746 OM 9746 OM OM1 9746 -0.550000 15.99940
9747 OM 9747 OM OM1 9747 -0.550000 15.99940
9748 OM 9748 OM OM1 9748 -0.550000 15.99940
9749 OM 9749 OM OM1 9749 -0.550000 15.99940
9750 OM 9750 OM OM1 9750 -0.550000 15.99940
9751 OM 9751 OM OM1 9751 -0.550000 15.99940
9752 OM 9752 OM OM1 9752 -0.550000 15.99940
9753 OM 9753 OM OM1 9753 -0.550000 15.99940
9754 OM 9754 OM OM1 9754 -0.550000 15.99940
9755 OM 9755 OM OM1 9755 -0.550000 15.99940
9756 OM 9756 OM OM1 9756 -0.550000 15.99940
9757 OM 9757 OM OM1 9757 -0.550000 15.99940
9758 OM 9758 OM OM1 9758 -0.550000 15.99940
9759 OM 9759 OM OM1 9759 -0.550000 15.99940
9760 OM 9760 OM OM1 9760 -0.550000 15.99940
9761 OM 9761 OM OM1 9761 -0.550000 15.99940
9762 OM 9762 OM OM1 9762 -0.550000 15.99940
9763 OM 9763 OM OM1 9763 -0.550000 15.99940
9764 OM 9764 OM OM1 9764 -0.550000 15.99940
9765 OM 9765 OM OM1 9765 -0.550000 15.99940
9766 OM 9766 OM OM1 9766 -0.550000 15.99940
9767 OM 9767 OM OM1 9767 -0.550000 15.99940
9768 OM 9768 OM OM1 9768 -0.550000 15.99940
9769 OM 9769 OM OM1 9769 -0.550000 15.99940
9770 OM 9770 OM OM1 9770 -0.550000 15.99940
9771 OM 9771 OM OM1 9771 -0.550000 15.99940
9772 OM 9772 OM OM1 9772 -0.550000 15.99940
9773 OM 9773 OM OM1 9773 -0.550000 15.99940
9774 OM 9774 OM OM1 9774 -0.550000 15.99940
9775 OM 9775 OM OM1 9775 -0.550000 15.99940
9776 OM 9776 OM OM1 9776 -0.550000 15.99940
9777 OM 9777 OM OM1 9777 -0.550000 15.99940
9778 OM 9778 OM OM1 9778 -0.550000 15.99940
9779 OM 9779 OM OM1 9779 -0.550000 15.99940
9780 OM 9780 OM OM1 9780 -0.550000 15.99940
9781 OM 9781 OM OM1 9781 -0.550000 15.99940
9782 OM 9782 OM OM1 9782 -0.550000 15.99940
9783 OM 9783 OM OM1 9783 -0.550000 15.99940
9784 OM 9784 OM OM1 9784 -0.550000 15.99940
9785 OM 9785 OM OM1 9785 -0.550000 15.99940
9786 OM 9786 OM OM1 9786 -0.550000 15.99940
9787 OM 9787 OM OM1 9787 -0.550000 15.99940
9788 OM 9788 OM OM1 9788 -0.550000 15.99940
9789 OM 9789 OM OM1 9789 -0.550000 15.99940
9790 OM 9790 OM OM1 9790 -0.550000 15.99940
9791 OM 9791 OM OM1 9791 -0.550000 15.99940
9792 OM 9792 OM OM1 9792 -0.550000 15.99940
9793 OM 9793 OM OM1 9793 -0.550000 15.99940
9794 OM 9794 OM OM1 9794 -0.550000 15.99940
9795 OM 9795 OM OM1 9795 -0.550000 15.99940
9796 OM 9796 OM OM1 9796 -0.550000 15.99940
9797 OM 9797 OM OM1 9797 -0.550000 15.99940
9798 OM 9798 OM OM1 9798 -0.550000 15.99940
9799 OM 9799 OM OM1 9799 -0.550000 15.99940
9800 OM 9800 OM OM1 9800 -0.550000 15.99940
9801 OM 9801 OM OM1 9801 -0.550000 15.99940
9802 OM 9802 OM OM1 9802 -0.550000 15.99940
9803 OM 9803 OM OM1 9803 -0.550000 15.99940
9804 OM 9804 OM OM1 9804 -0.550000 15.99940
9805 OM 9805 OM OM1 9805 -0.550000 15.99940
9806 OM 9806 OM OM1 9806 -0.550000 15.99940
9807 OM 9807 OM OM1 9807 -0.550000 15.99940
9808 OM 9808 OM OM1 9808 -0.550000 15.99940
9809 OM 9809 OM OM1 9809 -0.550000 15.99940
9810 OM 9810 OM OM1 9810 -0.550000 15.99940
9811 OM 9811 OM OM1 9811 -0.550000 15.99940
9812 OM 9812 OM OM1 9812 -0.550000 15.99940
9813 OM 9813 OM OM1 9813 -0.550000 15.99940
9814 OM 9814 OM OM1 9814 -0.550000 15.99940
9815 OM 9815 OM OM1 9815 -0.550000 15.99940
9816 OM 9816 OM OM1 9816 -0.550000 15.99940
9817 OM 9817 OM OM1 9817 -0.550000 15.99940
9818 OM 9818 OM OM1 9818 -0.550000 15.99940
9819 OM 9819 OM OM1 9819 -0.550000 15.99940
9820 OM 9820 OM OM1 9820 -0.550000 15.99940
9821 OM 9821 OM OM1 9821 -0.550000 15.99940
9822 OM 9822 OM OM1 9822 -0.550000 15.99940
9823 OM 9823 OM OM1 9823 -0.550000 15.99940
9824 OM 9824 OM OM1 9824 -0.550000 15.99940
9825 OM 9825 OM OM1 9825 -0.550000 15.99940
9826 OM 9826 OM OM1 9826 -0.550000 15.99940
9827 OM 9827 OM OM1 9827 -0.550000 15.99940
9828 OM 9828 OM OM1 9828 -0.550000 15.99940
9829 OM 9829 OM OM1 9829 -0.550000 15.99940
9830 OM 9830 OM OM1 9830 -0.550000 15.99940
9831 OM 9831 OM OM1 9831 -0.550000 15.99940
9832 OM 9832 OM OM1 9832 -0.550000 15.99940
9833 OM 9833 OM OM1 9833 -0.550000 15.99940
9834 OM 9834 OM OM1 9834 -0.550000 15.99940
9835 OM 9835 OM OM1 9835 -0.550000 15.99940
9836 OM 9836 OM OM1 9836 -0.550000 15.99940
9837 OM 9837 OM OM1 9837 -0.550000 15.99940
9838 OM 9838 OM OM1 9838 -0.550000 15.99940
9839 OM 9839 OM OM1 9839 -0.550000 15.99940
9840 OM 9840 OM OM1 9840 -0.550000 15.99940
9841 OM 9841 OM OM1 9841 -0.550000 15.99940
9842 OM 9842 OM OM1 9842 -0.550000 15.99940
9843 OM 9843 OM OM1 9843 -0.550000 15.99940
9844 OM 9844 OM OM1 9844 -0.550000 15.99940
9845 OM 9845 OM OM1 9845 -0.550000 15.99940
9846 OM 9846 OM OM1 9846 -0.550000 15.99940
9847 OM 9847 OM OM1 9847 -0.550000 15.99940
9848 OM 9848 OM OM1 9848 -0.550000 15.99940
9849 OM 9849 OM OM1 9849 -0.550000 15.99940
9850 OM 9850 OM OM1 9850 -0.550000 15.99940
9851 OM 9851 OM OM1 9851 -0.550000 15.99940
9852 OM 9852 OM OM1 9852 -0.550000 15.99940
9853 OM 9853 OM OM1 9853 -0.550000 15.99940
9854 OM 9854 OM OM1 9854 -0.550000 15.99940
9855 OM 9855 OM OM1 9855 -0.550000 15.99940
9856 OM 9856 OM OM1 9856 -0.550000 15.99940
9857 OM 9857 OM OM1 9857 -0.550000 15.99940
9858 OM 9858 OM OM1 9858 -0.550000 15.99940
9859 OM 9859 OM OM1 9859 -0.550000 15.99940
9860 OM 9860 OM OM1 9860 -0.550000 15.99940
9861 OM 9861 OM OM1 9861 -0.550000 15.99940
9862 OM 9862 OM OM1 9862 -0.550000 15.99940
9863 OM 9863 OM OM1 9863 -0.550000 15.99940
9864 OM 9864 OM OM1 9864 -0.550000 15.99940
9865 OM 9865 OM OM1 9865 -0.550000 15.99940
9866 OM 9866 OM OM1 9866 -0.550000 15.99940
9867 OM 9867 OM OM1 9867 -0.550000 15.99940
9868 OM 9868 OM OM1 9868 -0.550000 15.99940
9869 OM 9869 OM OM1 9869 -0.550000 15.99940
9870 OM 9870 OM OM1 9870 -0.550000 15.99940
9871 OM 9871 OM OM1 9871 -0.550000 15.99940
9872 OM 9872 OM OM1 9872 -0.550000 15.99940
9873 OM 9873 OM OM1 9873 -0.550000 15.99940
9874 OM 9874 OM OM1 9874 -0.550000 15.99940
9875 OM 9875 OM OM1 9875 -0.550000 15.99940
9876 OM 9876 OM OM1 9876 -0.550000 15.99940
9877 OM 9877 OM OM1 9877 -0.550000 15.99940
9878 OM 9878 OM OM1 9878 -0.550000 15.99940
9879 OM 9879 OM OM1 9879 -0.550000 15.99940
9880 OM 9880 OM OM1 9880 -0.550000 15.99940
9881 OM 9881 OM OM1 9881 -0.550000 15.99940
9882 OM 9882 OM OM1 9882 -0.550000 15.99940
9883 OM 9883 OM OM1 9883 -0.550000 15.99940
9884 OM 9884 OM OM1 9884 -0.550000 15.99940
9885 OM 9885 OM OM1 9885 -0.550000 15.99940
9886 OM 9886 OM OM1 9886 -0.550000 15.99940
9887 OM 9887 OM OM1 9887 -0.550000 15.99940
9888 OM 9888 OM OM1 9888 -0.550000 15.99940
9889 OM 9889 OM OM1 9889 -0.550000 15.99940
9890 OM 9890 OM OM1 9890 -0.550000 15.99940
9891 OM 9891 OM OM1 9891 -0.550000 15.99940
9892 OM 9892 OM OM1 9892 -0.550000 15.99940
9893 OM 9893 OM OM1 9893 -0.550000 15.99940
9894 OM 9894 OM OM1 9894 -0.550000 15.99940
9895 OM 9895 OM OM1 9895 -0.550000 15.99940
9896 OM 9896 OM OM1 9896 -0.550000 15.99940
9897 OM 9897 OM OM1 9897 -0.550000 15.99940
9898 OM 9898 OM OM1 9898 -0.550000 15.99940
9899 OM 9899 OM OM1 9899 -0.550000 15.99940
9900 OM 9900 OM OM1 9900 -0.550000 15.99940
9901 OM 9901 OM OM1 9901 -0.550000 15.99940
9902 OM 9902 OM OM1 9902 -0.550000 15.99940
9903 OM 9903 OM OM1 9903 -0.550000 15.99940
9904 OM 9904 OM OM1 9904 -0.550000 15.99940
9905 OM 9905 OM OM1 9905 -0.550000 15.99940
9906 OM 9906 OM OM1 9906 -0.550000 15.99940
9907 OM 9907 OM OM1 9907 -0.550000 15.99940
9908 OM 9908 OM OM1 9908 -0.550000 15.99940
9909 OM 9909 OM OM1 9909 -0.550000 15.99940
9910 OM 9910 OM OM1 9910 -0.550000 15.99940
9911 OM 9911 OM OM1 9911 -0.550000 15.99940
9912 OM 9912 OM OM1 9912 -0.550000 15.99940
9913 OM 9913 OM OM1 9913 -0.550000 15.99940
9914 OM 9914 OM OM1 9914 -0.550000 15.99940
9915 OM 9915 OM OM1 9915 -0.550000 15.99940
9916 OM 9916 OM OM1 9916 -0.550000 15.99940
9917 OM 9917 OM OM1 9917 -0.550000 15.99940
9918 OM 9918 OM OM1 9918 -0.550000 15.99940
9919 OM 9919 OM OM1 9919 -0.550000 15.99940
9920 OM 9920 OM OM1 9920 -0.550000 15.99940
9921 OM 9921 OM OM1 9921 -0.550000 15.99940
9922 OM 9922 OM OM1 9922 -0.550000 15.99940
9923 OM 9923 OM OM1 9923 -0.550000 15.99940
9924 OM 9924 OM OM1 9924 -0.550000 15.99940
9925 OM 9925 OM OM1 9925 -0.550000 15.99940
9926 OM 9926 OM OM1 9926 -0.550000 15.99940
9927 OM 9927 OM OM1 9927 -0.550000 15.99940
9928 OM 9928 OM OM1 9928 -0.550000 15.99940
9929 OM 9929 OM OM1 9929 -0.550000 15.99940
9930 OM 9930 OM OM1 9930 -0.550000 15.99940
9931 OM 9931 OM OM1 9931 -0.550000 15.99940
9932 OM 9932 OM OM1 9932 -0.550000 15.99940
9933 OM 9933 OM OM1 9933 -0.550000 15.99940
9934 OM 9934 OM OM1 9934 -0.550000 15.99940
9935 OM 9935 OM OM1 9935 -0.550000 15.99940
9936 OM 9936 OM OM1 9936 -0.550000 15.99940
9937 OM 9937 OM OM1 9937 -0.550000 15.99940
9938 OM 9938 OM OM1 9938 -0.550000 15.99940
9939 OM 9939 OM OM1 9939 -0.550000 15.99940
9940 OM 9940 OM OM1 9940 -0.550000 15.99940
9941 OM 9941 OM OM1 9941 -0.550000 15.99940
9942 OM 9942 OM OM1 9942 -0.550000 15.99940
9943 OM 9943 OM OM1 9943 -0.550000 15.99940
9944 OM 9944 OM OM1 9944 -0.550000 15.99940
9945 OM 9945 OM OM1 9945 -0.550000 15.99940
9946 OM 9946 OM OM1 9946 -0.550000 15.99940
9947 OM 9947 OM OM1 9947 -0.550000 15.99940
9948 OM 9948 OM OM1 9948 -0.550000 15.99940
9949 OM 9949 OM OM1 9949 -0.550000 15.99940
9950 OM 9950 OM OM1 9950 -0.550000 15.99940
9951 OM 9951 OM OM1 9951 -0.550000 15.99940
9952 OM 9952 OM OM1 9952 -0.550000 15.99940
9953 OM 9953 OM OM1 9953 -0.550000 15.99940
9954 OM 9954 OM OM1 9954 -0.550000 15.99940
9955 OM 9955 OM OM1 9955 -0.550000 15.99940
9956 OM 9956 OM OM1 9956 -0.550000 15.99940
9957 OM 9957 OM OM1 9957 -0.550000 15.99940
9958 OM 9958 OM OM1 9958 -0.550000 15.99940
9959 OM 9959 OM OM1 9959 -0.550000 15.99940
9960 OM 9960 OM OM1 9960 -0.550000 15.99940
9961 OM 9961 OM OM1 9961 -0.550000 15.99940
9962 OM 9962 OM OM1 9962 -0.550000 15.99940
9963 OM 9963 OM OM1 9963 -0.550000 15.99940
9964 OM 9964 OM OM1 9964 -0.550000 15.99940
9965 OM 9965 OM OM1 9965 -0.550000 15.99940
9966 OM 9966 OM OM1 9966 -0.550000 15.99940
9967 OM 9967 OM OM1 9967 -0.550000 15.99940
9968 OM 9968 OM OM1 9968 -0.550000 15.99940
9969 OM 9969 OM OM1 9969 -0.550000 15.99940
9970 OM 9970 OM OM1 9970 -0.550000 15.99940
9971 OM 9971 OM OM1 9971 -0.550000 15.99940
9972 OM 9972 OM OM1 9972 -0.550000 15.99940
9973 OM 9973 OM OM1 9973 -0.550000 15.99940
9974 OM 9974 OM OM1 9974 -0.550000 15.99940
9975 OM 9975 OM OM1 9975 -0.550000 15.99940
9976 OM 9976 OM OM1 9976 -0.550000 15.99940
9977 OM 9977 OM OM1 9977 -0.550000 15.99940
9978 OM 9978 OM OM1 9978 -0.550000 15.99940
9979 OM 9979 OM OM1 9979 -0.550000 15.99940
9980 OM 9980 OM OM1 9980 -0.550000 15.99940
9981 OM 9981 OM OM1 9981 -0.550000 15.99940
9982 OM 9982 OM OM1 9982 -0.550000 15.99940
9983 OM 9983 OM OM1 9983 -0.550000 15.99940
9984 OM 9984 OM OM1 9984 -0.550000 15.99940
9985 OM 9985 OM OM1 9985 -0.550000 15.99940
9986 OM 9986 OM OM1 9986 -0.550000 15.99940
9987 OM 9987 OM OM1 9987 -0.550000 15.99940
9988 OM 9988 OM OM1 9988 -0.550000 15.99940
9989 OM 9989 OM OM1 9989 -0.550000 15.99940
9990 OM 9990 OM OM1 9990 -0.550000 15.99940
9991 OM 9991 OM OM1 9991 -0.550000 15.99940
9992 OM 9992 OM OM1 9992 -0.550000 15.99940
9993 OM 9993 OM OM1 9993 -0.550000 15.99940
9994 OM 9994 OM OM1 9994 -0.550000 15.99940
9995 OM 9995 OM OM1 9995 -0.550000 15.99940
9996 OM 9996 OM OM1 9996 -0.550000 15.99940
9997 OM 9997 OM OM1 9997 -0.550000 15.99940
9998 OM 9998 OM OM1 9998 -0.550000 15.99940
9999 OM 9999 OM OM1 9999 -0.550000 15.99940
10000 OM 10000 OM OM1 10000 -0.550000 15.99940
10001 OM 10001 OM OM1 10001 -0.550000 15.99940
10002 OM 10002 OM OM1 10002 -0.550000 15.99940
10003 OM 10003 OM OM1 10003 -0.550000 15.99940
10004 OM 10004 OM OM1 10004 -0.550000 15.99940
10005 OM 10005 OM OM1 10005 -0.550000 15.99940
10006 OM 10006 OM OM1 10006 -0.550000 15.99940
10007 OM 10007 OM OM1 10007 -0.550000 15.99940
10008 OM 10008 OM OM1 10008 -0.550000 15.99940
10009 OM 10009 OM OM1 10009 -0.550000 15.99940
10010 OM 10010 OM OM1 10010 -0.550000 15.99940
10011 OM 10011 OM OM1 10011 -0.550000 15.99940
10012 OM 10012 OM OM1 10012 -0.550000 15.99940
10013 OM 10013 OM OM1 10013 -0.550000 15.99940
10014 OM 10014 OM OM1 10014 -0.550000 15.99940
10015 OM 10015 OM OM1 10015 -0.550000 15.99940
10016 OM 10016 OM OM1 10016 -0.550000 15.99940
10017 OM 10017 OM OM1 10017 -0.550000 15.99940
10018 OM 10018 OM OM1 10018 -0.550000 15.99940
10019 OM 10019 OM OM1 10019 -0.550000 15.99940
10020 OM 10020 OM OM1 10020 -0.550000 15.99940
10021 OM 10021 OM OM1 10021 -0.550000 15.99940
10022 OM 10022 OM OM1 10022 -0.550000 15.99940
10023 OM 10023 OM OM1 10023 -0.550000 15.99940
10024 OM 10024 OM OM1 10024 -0.550000 15.99940
10025 OM 10025 OM OM1 10025 -0.550000 15.99940
10026 OM 10026 OM OM1 10026 -0.550000 15.99940
10027 OM 10027 OM OM1 10027 -0.550000 15.99940
10028 OM 10028 OM OM1 10028 -0.550000 15.99940
10029 OM 10029 OM OM1 10029 -0.550000 15.99940
10030 OM 10030 OM OM1 10030 -0.550000 15.99940
10031 OM 10031 OM OM1 10031 -0.550000 15.99940
10032 OM 10032 OM OM1 10032 -0.550000 15.99940
10033 OM 10033 OM OM1 10033 -0.550000 15.99940
10034 OM 10034 OM OM1 10034 -0.550000 15.99940
10035 OM 10035 OM OM1 10035 -0.550000 15.99940
10036 OM 10036 OM OM1 10036 -0.550000 15.99940
10037 OM 10037 OM OM1 10037 -0.550000 15.99940
10038 OM 10038 OM OM1 10038 -0.550000 15.99940
10039 OM 10039 OM OM1 10039 -0.550000 15.99940
10040 OM 10040 OM OM1 10040 -0.550000 15.99940
10041 OM 10041 OM OM1 10041 -0.550000 15.99940
10042 OM 10042 OM OM1 10042 -0.550000 15.99940
10043 OM 10043 OM OM1 10043 -0.550000 15.99940
10044 OM 10044 OM OM1 10044 -0.550000 15.99940
10045 OM 10045 OM OM1 10045 -0.550000 15.99940
10046 OM 10046 OM OM1 10046 -0.550000 15.99940
10047 OM 10047 OM OM1 10047 -0.550000 15.99940
10048 OM 10048 OM OM1 10048 -0.550000 15.99940
10049 OM 10049 OM OM1 10049 -0.550000 15.99940
10050 OM 10050 OM OM1 10050 -0.550000 15.99940
10051 OM 10051 OM OM1 10051 -0.550000 15.99940
10052 OM 10052 OM OM1 10052 -0.550000 15.99940
10053 OM 10053 OM OM1 10053 -0.550000 15.99940
10054 OM 10054 OM OM1 10054 -0.550000 15.99940
10055 OM 10055 OM OM1 10055 -0.550000 15.99940
10056 OM 10056 OM OM1 10056 -0.550000 15.99940
10057 OM 10057 OM OM1 10057 -0.550000 15.99940
10058 OM 10058 OM OM1 10058 -0.550000 15.99940
10059 OM 10059 OM OM1 10059 -0.550000 15.99940
10060 OM 10060 OM OM1 10060 -0.550000 15.99940
10061 OM 10061 OM OM1 10061 -0.550000 15.99940
10062 OM 10062 OM OM1 10062 -0.550000 15.99940
10063 OM 10063 OM OM1 10063 -0.550000 15.99940
10064 OM 10064 OM OM1 10064 -0.550000 15.99940
10065 OM 10065 OM OM1 10065 -0.550000 15.99940
10066 OM 10066 OM OM1 10066 -0.550000 15.99940
10067 OM 10067 OM OM1 10067 -0.550000 15.99940
10068 OM 10068 OM OM1 10068 -0.550000 15.99940
10069 OM 10069 OM OM1 10069 -0.550000 15.99940
10070 OM 10070 OM OM1 10070 -0.550000 15.99940
10071 OM 10071 OM OM1 10071 -0.550000 15.99940
10072 OM 10072 OM OM1 10072 -0.550000 15.99940
10073 OM 10073 OM OM1 10073 -0.550000 15.99940
10074 OM 10074 OM OM1 10074 -0.550000 15.99940
10075 OM 10075 OM OM1 10075 -0.550000 15.99940
10076 OM 10076 OM OM1 10076 -0.550000 15.99940
10077 OM 10077 OM OM1 10077 -0.550000 15.99940
10078 OM 10078 OM OM1 10078 -0.550000 15.99940
10079 OM 10079 OM OM1 10079 -0.550000 15.99940
10080 OM 10080 OM OM1 10080 -0.550000 15.99940
10081 OM 10081 OM OM1 10081 -0.550000 15.99940
10082 OM 10082 OM OM1 10082 -0.550000 15.99940
10083 OM 10083 OM OM1 10083 -0.550000 15.99940
10084 OM 10084 OM OM1 10084 -0.550000 15.99940
10085 OM 10085 OM OM1 10085 -0.550000 15.99940
10086 OM 10086 OM OM1 10086 -0.550000 15.99940
10087 OM 10087 OM OM1 10087 -0.550000 15.99940
10088 OM 10088 OM OM1 10088 -0.550000 15.99940
10089 OM 10089 OM OM1 10089 -0.550000 15.99940
10090 OM 10090 OM OM1 10090 -0.550000 15.99940
10091 OM 10091 OM OM1 10091 -0.550000 15.99940
10092 OM 10092 OM OM1 10092 -0.550000 15.99940
10093 OM 10093 OM OM1 10093 -0.550000 15.99940
10094 OM 10094 OM OM1 10094 -0.550000 15.99940
10095 OM 10095 OM OM1 10095 -0.550000 15.99940
10096 OM 10096 OM OM1 10096 -0.550000 15.99940
10097 OM 10097 OM OM1 10097 -0.550000 15.99940
10098 OM 10098 OM OM1 10098 -0.550000 15.99940
10099 OM 10099 OM OM1 10099 -0.550000 15.99940
10100 OM 10100 OM OM1 10100 -0.550000 15.99940
10101 OM 10101 OM OM1 10101 -0.550000 15.99940
10102 OM 10102 OM OM1 10102 -0.550000 15.99940
10103 OM 10103 OM OM1 10103 -0.550000 15.99940
10104 OM 10104 OM OM1 10104 -0.550000 15.99940
10105 OM 10105 OM OM1 10105 -0.550000 15.99940
10106 OM 10106 OM OM1 10106 -0.550000 15.99940
10107 OM 10107 OM OM1 10107 -0.550000 15.99940
10108 OM 10108 OM OM1 10108 -0.550000 15.99940
10109 OM 10109 OM OM1 10109 -0.550000 15.99940
10110 OM 10110 OM OM1 10110 -0.550000 15.99940
10111 OM 10111 OM OM1 10111 -0.550000 15.99940
10112 OM 10112 OM OM1 10112 -0.550000 15.99940
10113 OM 10113 OM OM1 10113 -0.550000 15.99940
10114 OM 10114 OM OM1 10114 -0.550000 15.99940
10115 OM 10115 OM OM1 10115 -0.550000 15.99940
10116 OM 10116 OM OM1 10116 -0.550000 15.99940
10117 OM 10117 OM OM1 10117 -0.550000 15.99940
10118 OM 10118 OM OM1 10118 -0.550000 15.99940
10119 OM 10119 OM OM1 10119 -0.550000 15.99940
10120 OM 10120 OM OM1 10120 -0.550000 15.99940
10121 OM 10121 OM OM1 10121 -0.550000 15.99940
10122 OM 10122 OM OM1 10122 -0.550000 15.99940
10123 OM 10123 OM OM1 10123 -0.550000 15.99940
10124 OM 10124 OM OM1 10124 -0.550000 15.99940
10125 OM 10125 OM OM1 10125 -0.550000 15.99940
10126 OM 10126 OM OM1 10126 -0.550000 15.99940
10127 OM 10127 OM OM1 10127 -0.550000 15.99940
10128 OM 10128 OM OM1 10128 -0.550000 15.99940
10129 OM 10129 OM OM1 10129 -0.550000 15.99940
10130 OM 10130 OM OM1 10130 -0.550000 15.99940
10131 OM 10131 OM OM1 10131 -0.550000 15.99940
10132 OM 10132 OM OM1 10132 -0.550000 15.99940
10133 OM 10133 OM OM1 10133 -0.550000 15.99940
10134 OM 10134 OM OM1 10134 -0.550000 15.99940
10135 OM 10135 OM OM1 10135 -0.550000 15.99940
10136 OM 10136 OM OM1 10136 -0.550000 15.99940
10137 OM 10137 OM OM1 10137 -0.550000 15.99940
10138 OM 10138 OM OM1 10138 -0.550000 15.99940
10139 OM 10139 OM OM1 10139 -0.550000 15.99940
10140 OM 10140 OM OM1 10140 -0.550000 15.99940
10141 OM 10141 OM OM1 10141 -0.550000 15.99940
10142 OM 10142 OM OM1 10142 -0.550000 15.99940
10143 OM 10143 OM OM1 10143 -0.550000 15.99940
10144 OM 10144 OM OM1 10144 -0.550000 15.99940
10145 OM 10145 OM OM1 10145 -0.550000 15.99940
10146 OM 10146 OM OM1 10146 -0.550000 15.99940
10147 OM 10147 OM OM1 10147 -0.550000 15.99940
10148 OM 10148 OM OM1 10148 -0.550000 15.99940
10149 OM 10149 OM OM1 10149 -0.550000 15.99940
10150 OM 10150 OM OM1 10150 -0.550000 15.99940
10151 OM 10151 OM OM1 10151 -0.550000 15.99940
10152 OM 10152 OM OM1 10152 -0.550000 15.99940
10153 OM 10153 OM OM1 10153 -0.550000 15.99940
10154 OM 10154 OM OM1 10154 -0.550000 15.99940
10155 OM 10155 OM OM1 10155 -0.550000 15.99940
10156 OM 10156 OM OM1 10156 -0.550000 15.99940
10157 OM 10157 OM OM1 10157 -0.550000 15.99940
10158 OM 10158 OM OM1 10158 -0.550000 15.99940
10159 OM 10159 OM OM1 10159 -0.550000 15.99940
10160 OM 10160 OM OM1 10160 -0.550000 15.99940
10161 OM 10161 OM OM1 10161 -0.550000 15.99940
10162 OM 10162 OM OM1 10162 -0.550000 15.99940
10163 OM 10163 OM OM1 10163 -0.550000 15.99940
10164 OM 10164 OM OM1 10164 -0.550000 15.99940
10165 OM 10165 OM OM1 10165 -0.550000 15.99940
10166 OM 10166 OM OM1 10166 -0.550000 15.99940
10167 OM 10167 OM OM1 10167 -0.550000 15.99940
10168 OM 10168 OM OM1 10168 -0.550000 15.99940
10169 OM 10169 OM OM1 10169 -0.550000 15.99940
10170 OM 10170 OM OM1 10170 -0.550000 15.99940
10171 OM 10171 OM OM1 10171 -0.550000 15.99940
10172 OM 10172 OM OM1 10172 -0.550000 15.99940
10173 OM 10173 OM OM1 10173 -0.550000 15.99940
10174 OM 10174 OM OM1 10174 -0.550000 15.99940
10175 OM 10175 OM OM1 10175 -0.550000 15.99940
10176 OM 10176 OM OM1 10176 -0.550000 15.99940
10177 OM 10177 OM OM1 10177 -0.550000 15.99940
10178 OM 10178 OM OM1 10178 -0.550000 15.99940
10179 OM 10179 OM OM1 10179 -0.550000 15.99940
10180 OM 10180 OM OM1 10180 -0.550000 15.99940
10181 OM 10181 OM OM1 10181 -0.550000 15.99940
10182 OM 10182 OM OM1 10182 -0.550000 15.99940
10183 OM 10183 OM OM1 10183 -0.550000 15.99940
10184 OM 10184 OM OM1 10184 -0.550000 15.99940
10185 OM 10185 OM OM1 10185 -0.550000 15.99940
10186 OM 10186 OM OM1 10186 -0.550000 15.99940
10187 OM 10187 OM OM1 10187 -0.550000 15.99940
10188 OM 10188 OM OM1 10188 -0.550000 15.99940
10189 OM 10189 OM OM1 10189 -0.550000 15.99940
10190 OM 10190 OM OM1 10190 -0.550000 15.99940
10191 OM 10191 OM OM1 10191 -0.550000 15.99940
10192 OM 10192 OM OM1 10192 -0.550000 15.99940
10193 OM 10193 OM OM1 10193 -0.550000 15.99940
10194 OM 10194 OM OM1 10194 -0.550000 15.99940
10195 OM 10195 OM OM1 10195 -0.550000 15.99940
10196 OM 10196 OM OM1 10196 -0.550000 15.99940
10197 OM 10197 OM OM1 10197 -0.550000 15.99940
10198 OM 10198 OM OM1 10198 -0.550000 15.99940
10199 OM 10199 OM OM1 10199 -0.550000 15.99940
10200 OM 10200 OM OM1 10200 -0.550000 15.99940
10201 OM 10201 OM OM1 10201 -0.550000 15.99940
10202 OM 10202 OM OM1 10202 -0.550000 15.99940
10203 OM 10203 OM OM1 10203 -0.550000 15.99940
10204 OM 10204 OM OM1 10204 -0.550000 15.99940
10205 OM 10205 OM OM1 10205 -0.550000 15.99940
10206 OM 10206 OM OM1 10206 -0.550000 15.99940
10207 OM 10207 OM OM1 10207 -0.550000 15.99940
10208 OM 10208 OM OM1 10208 -0.550000 15.99940
10209 OM 10209 OM OM1 10209 -0.550000 15.99940
10210 OM 10210 OM OM1 10210 -0.550000 15.99940
10211 OM 10211 OM OM1 10211 -0.550000 15.99940
10212 OM 10212 OM OM1 10212 -0.550000 15.99940
10213 OM 10213 OM OM1 10213 -0.550000 15.99940
10214 OM 10214 OM OM1 10214 -0.550000 15.99940
10215 OM 10215 OM OM1 10215 -0.550000 15.99940
10216 OM 10216 OM OM1 10216 -0.550000 15.99940
10217 OM 10217 OM OM1 10217 -0.550000 15.99940
10218 OM 10218 OM OM1 10218 -0.550000 15.99940
10219 OM 10219 OM OM1 10219 -0.550000 15.99940
10220 OM 10220 OM OM1 10220 -0.550000 15.99940
10221 OM 10221 OM OM1 10221 -0.550000 15.99940
10222 OM 10222 OM OM1 10222 -0.550000 15.99940
10223 OM 10223 OM OM1 10223 -0.550000 15.99940
10224 OM 10224 OM OM1 10224 -0.550000 15.99940
10225 OM 10225 OM OM1 10225 -0.550000 15.99940
10226 OM 10226 OM OM1 10226 -0.550000 15.99940
10227 OM 10227 OM OM1 10227 -0.550000 15.99940
10228 OM 10228 OM OM1 10228 -0.550000 15.99940
10229 OM 10229 OM OM1 10229 -0.550000 15.99940
10230 OM 10230 OM OM1 10230 -0.550000 15.99940
10231 OM 10231 OM OM1 10231 -0.550000 15.99940
10232 OM 10232 OM OM1 10232 -0.550000 15.99940
10233 OM 10233 OM OM1 10233 -0.550000 15.99940
10234 OM 10234 OM OM1 10234 -0.550000 15.99940
10235 OM 10235 OM OM1 10235 -0.550000 15.99940
10236 OM 10236 OM OM1 10236 -0.550000 15.99940
10237 OM 10237 OM OM1 10237 -0.550000 15.99940
10238 OM 10238 OM OM1 10238 -0.550000 15.99940
10239 OM 10239 OM OM1 10239 -0.550000 15.99940
10240 OM 10240 OM OM1 10240 -0.550000 15.99940
10241 OM 10241 OM OM1 10241 -0.550000 15.99940
10242 OM 10242 OM OM1 10242 -0.550000 15.99940
10243 OM 10243 OM OM1 10243 -0.550000 15.99940
10244 OM 10244 OM OM1 10244 -0.550000 15.99940
10245 OM 10245 OM OM1 10245 -0.550000 15.99940
10246 OM 10246 OM OM1 10246 -0.550000 15.99940
10247 OM 10247 OM OM1 10247 -0.550000 15.99940
10248 OM 10248 OM OM1 10248 -0.550000 15.99940
10249 OM 10249 OM OM1 10249 -0.550000 15.99940
10250 OM 10250 OM OM1 10250 -0.550000 15.99940
10251 OM 10251 OM OM1 10251 -0.550000 15.99940
10252 OM 10252 OM OM1 10252 -0.550000 15.99940
10253 OM 10253 OM OM1 10253 -0.550000 15.99940
10254 OM 10254 OM OM1 10254 -0.550000 15.99940
10255 OM 10255 OM OM1 10255 -0.550000 15.99940
10256 OM 10256 OM OM1 10256 -0.550000 15.99940
10257 OM 10257 OM OM1 10257 -0.550000 15.99940
10258 OM 10258 OM OM1 10258 -0.550000 15.99940
10259 OM 10259 OM OM1 10259 -0.550000 15.99940
10260 OM 10260 OM OM1 10260 -0.550000 15.99940
10261 OM 10261 OM OM1 10261 -0.550000 15.99940
10262 OM 10262 OM OM1 10262 -0.550000 15.99940
10263 OM 10263 OM OM1 10263 -0.550000 15.99940
10264 OM 10264 OM OM1 10264 -0.550000 15.99940
10265 OM 10265 OM OM1 10265 -0.550000 15.99940
10266 OM 10266 OM OM1 10266 -0.550000 15.99940
10267 OM 10267 OM OM1 10267 -0.550000 15.99940
10268 OM 10268 OM OM1 10268 -0.550000 15.99940
10269 OM 10269 OM OM1 10269 -0.550000 15.99940
10270 OM 10270 OM OM1 10270 -0.550000 15.99940
10271 OM 10271 OM OM1 10271 -0.550000 15.99940
10272 OM 10272 OM OM1 10272 -0.550000 15.99940
10273 OM 10273 OM OM1 10273 -0.550000 15.99940
10274 OM 10274 OM OM1 10274 -0.550000 15.99940
10275 OM 10275 OM OM1 10275 -0.550000 15.99940
10276 OM 10276 OM OM1 10276 -0.550000 15.99940
10277 OM 10277 OM OM1 10277 -0.550000 15.99940
10278 OM 10278 OM OM1 10278 -0.550000 15.99940
10279 OM 10279 OM OM1 10279 -0.550000 15.99940
10280 OM 10280 OM OM1 10280 -0.550000 15.99940
10281 OM 10281 OM OM1 10281 -0.550000 15.99940
10282 OM 10282 OM OM1 10282 -0.550000 15.99940
10283 OM 10283 OM OM1 10283 -0.550000 15.99940
10284 OM 10284 OM OM1 10284 -0.550000 15.99940
10285 OM 10285 OM OM1 10285 -0.550000 15.99940
10286 OM 10286 OM OM1 10286 -0.550000 15.99940
10287 OM 10287 OM OM1 10287 -0.550000 15.99940
10288 OM 10288 OM OM1 10288 -0.550000 15.99940
10289 OM 10289 OM OM1 10289 -0.550000 15.99940
10290 OM 10290 OM OM1 10290 -0.550000 15.99940
10291 OM 10291 OM OM1 10291 -0.550000 15.99940
10292 OM 10292 OM OM1 10292 -0.550000 15.99940
10293 OM 10293 OM OM1 10293 -0.550000 15.99940
10294 OM 10294 OM OM1 10294 -0.550000 15.99940
10295 OM 10295 OM OM1 10295 -0.550000 15.99940
10296 OM 10296 OM OM1 10296 -0.550000 15.99940
10297 OM 10297 OM OM1 10297 -0.550000 15.99940
10298 OM 10298 OM OM1 10298 -0.550000 15.99940
10299 OM 10299 OM OM1 10299 -0.550000 15.99940
10300 OM 10300 OM OM1 10300 -0.550000 15.99940
10301 OM 10301 OM OM1 10301 -0.550000 15.99940
10302 OM 10302 OM OM1 10302 -0.550000 15.99940
10303 OM 10303 OM OM1 10303 -0.550000 15.99940
10304 OM 10304 OM OM1 10304 -0.550000 15.99940
10305 OM 10305 OM OM1 10305 -0.550000 15.99940
10306 OM 10306 OM OM1 10306 -0.550000 15.99940
10307 OM 10307 OM OM1 10307 -0.550000 15.99940
10308 OM 10308 OM OM1 10308 -0.550000 15.99940
10309 OM 10309 OM OM1 10309 -0.550000 15.99940
10310 OM 10310 OM OM1 10310 -0.550000 15.99940
10311 OM 10311 OM OM1 10311 -0.550000 15.99940
10312 OM 10312 OM OM1 10312 -0.550000 15.99940
10313 OM 10313 OM OM1 10313 -0.550000 15.99940
10314 OM 10314 OM OM1 10314 -0.550000 15.99940
10315 OM 10315 OM OM1 10315 -0.550000 15.99940
10316 OM 10316 OM OM1 10316 -0.550000 15.99940
10317 OM 10317 OM OM1 10317 -0.550000 15.99940
10318 OM 10318 OM OM1 10318 -0.550000 15.99940
10319 OM 10319 OM OM1 10319 -0.550000 15.99940
10320 OM 10320 OM OM1 10320 -0.550000 15.99940
10321 OM 10321 OM OM1 10321 -0.550000 15.99940
10322 OM 10322 OM OM1 10322 -0.550000 15.99940
10323 OM 10323 OM OM1 10323 -0.550000 15.99940
10324 OM 10324 OM OM1 10324 -0.550000 15.99940
10325 OM 10325 OM OM1 10325 -0.550000 15.99940
10326 OM 10326 OM OM1 10326 -0.550000 15.99940
10327 OM 10327 OM OM1 10327 -0.550000 15.99940
10328 OM 10328 OM OM1 10328 -0.550000 15.99940
10329 OM 10329 OM OM1 10329 -0.550000 15.99940
10330 OM 10330 OM OM1 10330 -0.550000 15.99940
10331 OM 10331 OM OM1 10331 -0.550000 15.99940
10332 OM 10332 OM OM1 10332 -0.550000 15.99940
10333 OM 10333 OM OM1 10333 -0.550000 15.99940
10334 OM 10334 OM OM1 10334 -0.550000 15.99940
10335 OM 10335 OM OM1 10335 -0.550000 15.99940
10336 OM 10336 OM OM1 10336 -0.550000 15.99940
10337 OM 10337 OM OM1 10337 -0.550000 15.99940
10338 OM 10338 OM OM1 10338 -0.550000 15.99940
10339 OM 10339 OM OM1 10339 -0.550000 15.99940
10340 OM 10340 OM OM1 10340 -0.550000 15.99940
10341 OM 10341 OM OM1 10341 -0.550000 15.99940
10342 OM 10342 OM OM1 10342 -0.550000 15.99940
10343 OM 10343 OM OM1 10343 -0.550000 15.99940
10344 OM 10344 OM OM1 10344 -0.550000 15.99940
10345 OM 10345 OM OM1 10345 -0.550000 15.99940
10346 OM 10346 OM OM1 10346 -0.550000 15.99940
10347 OM 10347 OM OM1 10347 -0.550000 15.99940
10348 OM 10348 OM OM1 10348 -0.550000 15.99940
10349 OM 10349 OM OM1 10349 -0.550000 15.99940
10350 OM 10350 OM OM1 10350 -0.550000 15.99940
10351 OM 10351 OM OM1 10351 -0.550000 15.99940
10352 OM 10352 OM OM1 10352 -0.550000 15.99940
10353 OM 10353 OM OM1 10353 -0.550000 15.99940
10354 OM 10354 OM OM1 10354 -0.550000 15.99940
10355 OM 10355 OM OM1 10355 -0.550000 15.99940
10356 OM 10356 OM OM1 10356 -0.550000 15.99940
10357 OM 10357 OM OM1 10357 -0.550000 15.99940
10358 OM 10358 OM OM1 10358 -0.550000 15.99940
10359 OM 10359 OM OM1 10359 -0.550000 15.99940
10360 OM 10360 OM OM1 10360 -0.550000 15.99940
10361 OM 10361 OM OM1 10361 -0.550000 15.99940
10362 OM 10362 OM OM1 10362 -0.550000 15.99940
10363 OM 10363 OM OM1 10363 -0.550000 15.99940
10364 OM 10364 OM OM1 10364 -0.550000 15.99940
10365 OM 10365 OM OM1 10365 -0.550000 15.99940
10366 OM 10366 OM OM1 10366 -0.550000 15.99940
10367 OM 10367 OM OM1 10367 -0.550000 15.99940
10368 OM 10368 OM OM1 10368 -0.550000 15.99940
10369 OM 10369 OM OM1 10369 -0.550000 15.99940
10370 OM 10370 OM OM1 10370 -0.550000 15.99940
10371 OM 10371 OM OM1 10371 -0.550000 15.99940
10372 OM 10372 OM OM1 10372 -0.550000 15.99940
10373 OM 10373 OM OM1 10373 -0.550000 15.99940
10374 OM 10374 OM OM1 10374 -0.550000 15.99940
10375 OM 10375 OM OM1 10375 -0.550000 15.99940
10376 OM 10376 OM OM1 10376 -0.550000 15.99940
10377 OM 10377 OM OM1 10377 -0.550000 15.99940
10378 OM 10378 OM OM1 10378 -0.550000 15.99940
10379 OM 10379 OM OM1 10379 -0.550000 15.99940
10380 OM 10380 OM OM1 10380 -0.550000 15.99940
10381 OM 10381 OM OM1 10381 -0.550000 15.99940
10382 OM 10382 OM OM1 10382 -0.550000 15.99940
10383 OM 10383 OM OM1 10383 -0.550000 15.99940
10384 OM 10384 OM OM1 10384 -0.550000 15.99940
10385 OM 10385 OM OM1 10385 -0.550000 15.99940
10386 OM 10386 OM OM1 10386 -0.550000 15.99940
10387 OM 10387 OM OM1 10387 -0.550000 15.99940
10388 OM 10388 OM OM1 10388 -0.550000 15.99940
10389 OM 10389 OM OM1 10389 -0.550000 15.99940
10390 OM 10390 OM OM1 10390 -0.550000 15.99940
10391 OM 10391 OM OM1 10391 -0.550000 15.99940
10392 OM 10392 OM OM1 10392 -0.550000 15.99940
10393 OM 10393 OM OM1 10393 -0.550000 15.99940
10394 OM 10394 OM OM1 10394 -0.550000 15.99940
10395 OM 10395 OM OM1 10395 -0.550000 15.99940
10396 OM 10396 OM OM1 10396 -0.550000 15.99940
10397 OM 10397 OM OM1 10397 -0.550000 15.99940
10398 OM 10398 OM OM1 10398 -0.550000 15.99940
10399 OM 10399 OM OM1 10399 -0.550000 15.99940
10400 OM 10400 OM OM1 10400 -0.550000 15.99940
10401 OM 10401 OM OM1 10401 -0.550000 15.99940
10402 OM 10402 OM OM1 10402 -0.550000 15.99940
10403 OM 10403 OM OM1 10403 -0.550000 15.99940
10404 OM 10404 OM OM1 10404 -0.550000 15.99940
10405 OM 10405 OM OM1 10405 -0.550000 15.99940
10406 OM 10406 OM OM1 10406 -0.550000 15.99940
10407 OM 10407 OM OM1 10407 -0.550000 15.99940
10408 OM 10408 OM OM1 10408 -0.550000 15.99940
10409 OM 10409 OM OM1 10409 -0.550000 15.99940
10410 OM 10410 OM OM1 10410 -0.550000 15.99940
10411 OM 10411 OM OM1 10411 -0.550000 15.99940
10412 OM 10412 OM OM1 10412 -0.550000 15.99940
10413 OM 10413 OM OM1 10413 -0.550000 15.99940
10414 OM 10414 OM OM1 10414 -0.550000 15.99940
10415 OM 10415 OM OM1 10415 -0.550000 15.99940
10416 OM 10416 OM OM1 10416 -0.550000 15.99940
10417 OM 10417 OM OM1 10417 -0.550000 15.99940
10418 OM 10418 OM OM1 10418 -0.550000 15.99940
10419 OM 10419 OM OM1 10419 -0.550000 15.99940
10420 OM 10420 OM OM1 10420 -0.550000 15.99940
10421 OM 10421 OM OM1 10421 -0.550000 15.99940
10422 OM 10422 OM OM1 10422 -0.550000 15.99940
10423 OM 10423 OM OM1 10423 -0.550000 15.99940
10424 OM 10424 OM OM1 10424 -0.550000 15.99940
10425 OM 10425 OM OM1 10425 -0.550000 15.99940
10426 OM 10426 OM OM1 10426 -0.550000 15.99940
10427 OM 10427 OM OM1 10427 -0.550000 15.99940
10428 OM 10428 OM OM1 10428 -0.550000 15.99940
10429 OM 10429 OM OM1 10429 -0.550000 15.99940
10430 OM 10430 OM OM1 10430 -0.550000 15.99940
10431 OM 10431 OM OM1 10431 -0.550000 15.99940
10432 OM 10432 OM OM1 10432 -0.550000 15.99940
10433 OM 10433 OM OM1 10433 -0.550000 15.99940
10434 OM 10434 OM OM1 10434 -0.550000 15.99940
10435 OM 10435 OM OM1 10435 -0.550000 15.99940
10436 OM 10436 OM OM1 10436 -0.550000 15.99940
10437 OM 10437 OM OM1 10437 -0.550000 15.99940
10438 OM 10438 OM OM1 10438 -0.550000 15.99940
10439 OM 10439 OM OM1 10439 -0.550000 15.99940
10440 OM 10440 OM OM1 10440 -0.550000 15.99940
10441 OM 10441 OM OM1 10441 -0.550000 15.99940
10442 OM 10442 OM OM1 10442 -0.550000 15.99940
10443 OM 10443 OM OM1 10443 -0.550000 15.99940
10444 OM 10444 OM OM1 10444 -0.550000 15.99940
10445 OM 10445 OM OM1 10445 -0.550000 15.99940
10446 OM 10446 OM OM1 10446 -0.550000 15.99940
10447 OM 10447 OM OM1 10447 -0.550000 15.99940
10448 OM 10448 OM OM1 10448 -0.550000 15.99940
10449 OM 10449 OM OM1 10449 -0.550000 15.99940
10450 OM 10450 OM OM1 10450 -0.550000 15.99940
10451 OM 10451 OM OM1 10451 -0.550000 15.99940
10452 OM 10452 OM OM1 10452 -0.550000 15.99940
10453 OM 10453 OM OM1 10453 -0.550000 15.99940
10454 OM 10454 OM OM1 10454 -0.550000 15.99940
10455 OM 10455 OM OM1 10455 -0.550000 15.99940
10456 OM 10456 OM OM1 10456 -0.550000 15.99940
10457 OM 10457 OM OM1 10457 -0.550000 15.99940
10458 OM 10458 OM OM1 10458 -0.550000 15.99940
10459 OM 10459 OM OM1 10459 -0.550000 15.99940
10460 OM 10460 OM OM1 10460 -0.550000 15.99940
10461 OM 10461 OM OM1 10461 -0.550000 15.99940
10462 OM 10462 OM OM1 10462 -0.550000 15.99940
10463 OM 10463 OM OM1 10463 -0.550000 15.99940
10464 OM 10464 OM OM1 10464 -0.550000 15.99940
10465 OM 10465 OM OM1 10465 -0.550000 15.99940
10466 OM 10466 OM OM1 10466 -0.550000 15.99940
10467 OM 10467 OM OM1 10467 -0.550000 15.99940
10468 OM 10468 OM OM1 10468 -0.550000 15.99940
10469 OM 10469 OM OM1 10469 -0.550000 15.99940
10470 OM 10470 OM OM1 10470 -0.550000 15.99940
10471 OM 10471 OM OM1 10471 -0.550000 15.99940
10472 OM 10472 OM OM1 10472 -0.550000 15.99940
10473 OM 10473 OM OM1 10473 -0.550000 15.99940
10474 OM 10474 OM OM1 10474 -0.550000 15.99940
10475 OM 10475 OM OM1 10475 -0.550000 15.99940
10476 OM 10476 OM OM1 10476 -0.550000 15.99940
10477 OM 10477 OM OM1 10477 -0.550000 15.99940
10478 OM 10478 OM OM1 10478 -0.550000 15.99940
10479 OM 10479 OM OM1 10479 -0.550000 15.99940
10480 OM 10480 OM OM1 10480 -0.550000 15.99940
10481 OM 10481 OM OM1 10481 -0.550000 15.99940
10482 OM 10482 OM OM1 10482 -0.550000 15.99940
10483 OM 10483 OM OM1 10483 -0.550000 15.99940
10484 OM 10484 OM OM1 10484 -0.550000 15.99940
10485 OM 10485 OM OM1 10485 -0.550000 15.99940
10486 OM 10486 OM OM1 10486 -0.550000 15.99940
10487 OM 10487 OM OM1 10487 -0.550000 15.99940
10488 OM 10488 OM OM1 10488 -0.550000 15.99940
10489 OM 10489 OM OM1 10489 -0.550000 15.99940
10490 OM 10490 OM OM1 10490 -0.550000 15.99940
10491 OM 10491 OM OM1 10491 -0.550000 15.99940
10492 OM 10492 OM OM1 10492 -0.550000 15.99940
10493 OM 10493 OM OM1 10493 -0.550000 15.99940
10494 OM 10494 OM OM1 10494 -0.550000 15.99940
10495 OM 10495 OM OM1 10495 -0.550000 15.99940
10496 OM 10496 OM OM1 10496 -0.550000 15.99940
10497 OM 10497 OM OM1 10497 -0.550000 15.99940
10498 OM 10498 OM OM1 10498 -0.550000 15.99940
10499 OM 10499 OM OM1 10499 -0.550000 15.99940
10500 OM 10500 OM OM1 10500 -0.550000 15.99940
10501 OM 10501 OM OM1 10501 -0.550000 15.99940
10502 OM 10502 OM OM1 10502 -0.550000 15.99940
10503 OM 10503 OM OM1 10503 -0.550000 15.99940
10504 OM 10504 OM OM1 10504 -0.550000 15.99940
10505 OM 10505 OM OM1 10505 -0.550000 15.99940
10506 OM 10506 OM OM1 10506 -0.550000 15.99940
10507 OM 10507 OM OM1 10507 -0.550000 15.99940
10508 OM 10508 OM OM1 10508 -0.550000 15.99940
10509 OM 10509 OM OM1 10509 -0.550000 15.99940
10510 OM 10510 OM OM1 10510 -0.550000 15.99940
10511 OM 10511 OM OM1 10511 -0.550000 15.99940
10512 OM 10512 OM OM1 10512 -0.550000 15.99940
10513 OM 10513 OM OM1 10513 -0.550000 15.99940
10514 OM 10514 OM OM1 10514 -0.550000 15.99940
10515 OM 10515 OM OM1 10515 -0.550000 15.99940
10516 OM 10516 OM OM1 10516 -0.550000 15.99940
10517 OM 10517 OM OM1 10517 -0.550000 15.99940
10518 OM 10518 OM OM1 10518 -0.550000 15.99940
10519 OM 10519 OM OM1 10519 -0.550000 15.99940
10520 OM 10520 OM OM1 10520 -0.550000 15.99940
10521 OM 10521 OM OM1 10521 -0.550000 15.99940
10522 OM 10522 OM OM1 10522 -0.550000 15.99940
10523 OM 10523 OM OM1 10523 -0.550000 15.99940
10524 OM 10524 OM OM1 10524 -0.550000 15.99940
10525 OM 10525 OM OM1 10525 -0.550000 15.99940
10526 OM 10526 OM OM1 10526 -0.550000 15.99940
10527 OM 10527 OM OM1 10527 -0.550000 15.99940
10528 OM 10528 OM OM1 10528 -0.550000 15.99940
10529 OM 10529 OM OM1 10529 -0.550000 15.99940
10530 OM 10530 OM OM1 10530 -0.550000 15.99940
10531 OM 10531 OM OM1 10531 -0.550000 15.99940
10532 OM 10532 OM OM1 10532 -0.550000 15.99940
10533 OM 10533 OM OM1 10533 -0.550000 15.99940
10534 OM 10534 OM OM1 10534 -0.550000 15.99940
10535 OM 10535 OM OM1 10535 -0.550000 15.99940
10536 OM 10536 OM OM1 10536 -0.550000 15.99940
10537 OM 10537 OM OM1 10537 -0.550000 15.99940
10538 OM 10538 OM OM1 10538 -0.550000 15.99940
10539 OM 10539 OM OM1 10539 -0.550000 15.99940
10540 OM 10540 OM OM1 10540 -0.550000 15.99940
10541 OM 10541 OM OM1 10541 -0.550000 15.99940
10542 OM 10542 OM OM1 10542 -0.550000 15.99940
10543 OM 10543 OM OM1 10543 -0.550000 15.99940
10544 OM 10544 OM OM1 10544 -0.550000 15.99940
10545 OM 10545 OM OM1 10545 -0.550000 15.99940
10546 OM 10546 OM OM1 10546 -0.550000 15.99940
10547 OM 10547 OM OM1 10547 -0.550000 15.99940
10548 OM 10548 OM OM1 10548 -0.550000 15.99940
10549 OM 10549 OM OM1 10549 -0.550000 15.99940
10550 OM 10550 OM OM1 10550 -0.550000 15.99940
10551 OM 10551 OM OM1 10551 -0.550000 15.99940
10552 OM 10552 OM OM1 10552 -0.550000 15.99940
10553 OM 10553 OM OM1 10553 -0.550000 15.99940
10554 OM 10554 OM OM1 10554 -0.550000 15.99940
10555 OM 10555 OM OM1 10555 -0.550000 15.99940
10556 OM 10556 OM OM1 10556 -0.550000 15.99940
10557 OM 10557 OM OM1 10557 -0.550000 15.99940
10558 OM 10558 OM OM1 10558 -0.550000 15.99940
10559 OM 10559 OM OM1 10559 -0.550000 15.99940
10560 OM 10560 OM OM1 10560 -0.550000 15.99940
10561 OM 10561 OM OM1 10561 -0.550000 15.99940
10562 OM 10562 OM OM1 10562 -0.550000 15.99940
10563 OM 10563 OM OM1 10563 -0.550000 15.99940
10564 OM 10564 OM OM1 10564 -0.550000 15.99940
10565 OM 10565 OM OM1 10565 -0.550000 15.99940
10566 OM 10566 OM OM1 10566 -0.550000 15.99940
10567 OM 10567 OM OM1 10567 -0.550000 15.99940
10568 OM 10568 OM OM1 10568 -0.550000 15.99940
10569 OM 10569 OM OM1 10569 -0.550000 15.99940
10570 OM 10570 OM OM1 10570 -0.550000 15.99940
10571 OM 10571 OM OM1 10571 -0.550000 15.99940
10572 OM 10572 OM OM1 10572 -0.550000 15.99940
10573 OM 10573 OM OM1 10573 -0.550000 15.99940
10574 OM 10574 OM OM1 10574 -0.550000 15.99940
10575 OM 10575 OM OM1 10575 -0.550000 15.99940
10576 OM 10576 OM OM1 10576 -0.550000 15.99940
10577 OM 10577 OM OM1 10577 -0.550000 15.99940
10578 OM 10578 OM OM1 10578 -0.550000 15.99940
10579 OM 10579 OM OM1 10579 -0.550000 15.99940
10580 OM 10580 OM OM1 10580 -0.550000 15.99940
10581 OM 10581 OM OM1 10581 -0.550000 15.99940
10582 OM 10582 OM OM1 10582 -0.550000 15.99940
10583 OM 10583 OM OM1 10583 -0.550000 15.99940
10584 OM 10584 OM OM1 10584 -0.550000 15.99940
10585 OM 10585 OM OM1 10585 -0.550000 15.99940
10586 OM 10586 OM OM1 10586 -0.550000 15.99940
10587 OM 10587 OM OM1 10587 -0.550000 15.99940
10588 OM 10588 OM OM1 10588 -0.550000 15.99940
10589 OM 10589 OM OM1 10589 -0.550000 15.99940
10590 OM 10590 OM OM1 10590 -0.550000 15.99940
10591 OM 10591 OM OM1 10591 -0.550000 15.99940
10592 OM 10592 OM OM1 10592 -0.550000 15.99940
10593 OM 10593 OM OM1 10593 -0.550000 15.99940
10594 OM 10594 OM OM1 10594 -0.550000 15.99940
10595 OM 10595 OM OM1 10595 -0.550000 15.99940
10596 OM 10596 OM OM1 10596 -0.550000 15.99940
10597 OM 10597 OM OM1 10597 -0.550000 15.99940
10598 OM 10598 OM OM1 10598 -0.550000 15.99940
10599 OM 10599 OM OM1 10599 -0.550000 15.99940
10600 OM 10600 OM OM1 10600 -0.550000 15.99940
10601 OM 10601 OM OM1 10601 -0.550000 15.99940
10602 OM 10602 OM OM1 10602 -0.550000 15.99940
10603 OM 10603 OM OM1 10603 -0.550000 15.99940
10604 OM 10604 OM OM1 10604 -0.550000 15.99940
10605 OM 10605 OM OM1 10605 -0.550000 15.99940
10606 OM 10606 OM OM1 10606 -0.550000 15.99940
10607 OM 10607 OM OM1 10607 -0.550000 15.99940
10608 OM 10608 OM OM1 10608 -0.550000 15.99940
10609 OM 10609 OM OM1 10609 -0.550000 15.99940
10610 OM 10610 OM OM1 10610 -0.550000 15.99940
10611 OM 10611 OM OM1 10611 -0.550000 15.99940
10612 OM 10612 OM OM1 10612 -0.550000 15.99940
10613 OM 10613 OM OM1 10613 -0.550000 15.99940
10614 OM 10614 OM OM1 10614 -0.550000 15.99940
10615 OM 10615 OM OM1 10615 -0.550000 15.99940
10616 OM 10616 OM OM1 10616 -0.550000 15.99940
10617 OM 10617 OM OM1 10617 -0.550000 15.99940
10618 OM 10618 OM OM1 10618 -0.550000 15.99940
10619 OM 10619 OM OM1 10619 -0.550000 15.99940
10620 OM 10620 OM OM1 10620 -0.550000 15.99940
10621 OM 10621 OM OM1 10621 -0.550000 15.99940
10622 OM 10622 OM OM1 10622 -0.550000 15.99940
10623 OM 10623 OM OM1 10623 -0.550000 15.99940
10624 OM 10624 OM OM1 10624 -0.550000 15.99940
10625 OM 10625 OM OM1 10625 -0.550000 15.99940
10626 OM 10626 OM OM1 10626 -0.550000 15.99940
10627 OM 10627 OM OM1 10627 -0.550000 15.99940
10628 OM 10628 OM OM1 10628 -0.550000 15.99940
10629 OM 10629 OM OM1 10629 -0.550000 15.99940
10630 OM 10630 OM OM1 10630 -0.550000 15.99940
10631 OM 10631 OM OM1 10631 -0.550000 15.99940
10632 OM 10632 OM OM1 10632 -0.550000 15.99940
10633 OM 10633 OM OM1 10633 -0.550000 15.99940
10634 OM 10634 OM OM1 10634 -0.550000 15.99940
10635 OM 10635 OM OM1 10635 -0.550000 15.99940
10636 OM 10636 OM OM1 10636 -0.550000 15.99940
10637 OM 10637 OM OM1 10637 -0.550000 15.99940
10638 OM 10638 OM OM1 10638 -0.550000 15.99940
10639 OM 10639 OM OM1 10639 -0.550000 15.99940
10640 OM 10640 OM OM1 10640 -0.550000 15.99940
10641 OM 10641 OM OM1 10641 -0.550000 15.99940
10642 OM 10642 OM OM1 10642 -0.550000 15.99940
10643 OM 10643 OM OM1 10643 -0.550000 15.99940
10644 OM 10644 OM OM1 10644 -0.550000 15.99940
10645 OM 10645 OM OM1 10645 -0.550000 15.99940
10646 OM 10646 OM OM1 10646 -0.550000 15.99940
10647 OM 10647 OM OM1 10647 -0.550000 15.99940
10648 OM 10648 OM OM1 10648 -0.550000 15.99940
10649 OM 10649 OM OM1 10649 -0.550000 15.99940
10650 OM 10650 OM OM1 10650 -0.550000 15.99940
10651 OM 10651 OM OM1 10651 -0.550000 15.99940
10652 OM 10652 OM OM1 10652 -0.550000 15.99940
10653 OM 10653 OM OM1 10653 -0.550000 15.99940
10654 OM 10654 OM OM1 10654 -0.550000 15.99940
10655 OM 10655 OM OM1 10655 -0.550000 15.99940
10656 OM 10656 OM OM1 10656 -0.550000 15.99940
10657 OM 10657 OM OM1 10657 -0.550000 15.99940
10658 OM 10658 OM OM1 10658 -0.550000 15.99940
10659 OM 10659 OM OM1 10659 -0.550000 15.99940
10660 OM 10660 OM OM1 10660 -0.550000 15.99940
10661 OM 10661 OM OM1 10661 -0.550000 15.99940
10662 OM 10662 OM OM1 10662 -0.550000 15.99940
10663 OM 10663 OM OM1 10663 -0.550000 15.99940
10664 OM 10664 OM OM1 10664 -0.550000 15.99940
10665 OM 10665 OM OM1 10665 -0.550000 15.99940
10666 OM 10666 OM OM1 10666 -0.550000 15.99940
10667 OM 10667 OM OM1 10667 -0.550000 15.99940
10668 OM 10668 OM OM1 10668 -0.550000 15.99940
10669 OM 10669 OM OM1 10669 -0.550000 15.99940
10670 OM 10670 OM OM1 10670 -0.550000 15.99940
10671 OM 10671 OM OM1 10671 -0.550000 15.99940
10672 OM 10672 OM OM1 10672 -0.550000 15.99940
10673 OM 10673 OM OM1 10673 -0.550000 15.99940
10674 OM 10674 OM OM1 10674 -0.550000 15.99940
10675 OM 10675 OM OM1 10675 -0.550000 15.99940
10676 OM 10676 OM OM1 10676 -0.550000 15.99940
10677 OM 10677 OM OM1 10677 -0.550000 15.99940
10678 OM 10678 OM OM1 10678 -0.550000 15.99940
10679 OM 10679 OM OM1 10679 -0.550000 15.99940
10680 OM 10680 OM OM1 10680 -0.550000 15.99940
10681 OM 10681 OM OM1 10681 -0.550000 15.99940
10682 OM 10682 OM OM1 10682 -0.550000 15.99940
10683 OM 10683 OM OM1 10683 -0.550000 15.99940
10684 OM 10684 OM OM1 10684 -0.550000 15.99940
10685 OM 10685 OM OM1 10685 -0.550000 15.99940
10686 OM 10686 OM OM1 10686 -0.550000 15.99940
10687 OM 10687 OM OM1 10687 -0.550000 15.99940
10688 OM 10688 OM OM1 10688 -0.550000 15.99940
10689 OM 10689 OM OM1 10689 -0.550000 15.99940
10690 OM 10690 OM OM1 10690 -0.550000 15.99940
10691 OM 10691 OM OM1 10691 -0.550000 15.99940
10692 OM 10692 OM OM1 10692 -0.550000 15.99940
10693 OM 10693 OM OM1 10693 -0.550000 15.99940
10694 OM 10694 OM OM1 10694 -0.550000 15.99940
10695 OM 10695 OM OM1 10695 -0.550000 15.99940
10696 OM 10696 OM OM1 10696 -0.550000 15.99940
10697 OM 10697 OM OM1 10697 -0.550000 15.99940
10698 OM 10698 OM OM1 10698 -0.550000 15.99940
10699 OM 10699 OM OM1 10699 -0.550000 15.99940
10700 OM 10700 OM OM1 10700 -0.550000 15.99940
10701 OM 10701 OM OM1 10701 -0.550000 15.99940
10702 OM 10702 OM OM1 10702 -0.550000 15.99940
10703 OM 10703 OM OM1 10703 -0.550000 15.99940
10704 OM 10704 OM OM1 10704 -0.550000 15.99940
10705 OM 10705 OM OM1 10705 -0.550000 15.99940
10706 OM 10706 OM OM1 10706 -0.550000 15.99940
10707 OM 10707 OM OM1 10707 -0.550000 15.99940
10708 OM 10708 OM OM1 10708 -0.550000 15.99940
10709 OM 10709 OM OM1 10709 -0.550000 15.99940
10710 OM 10710 OM OM1 10710 -0.550000 15.99940
10711 OM 10711 OM OM1 10711 -0.550000 15.99940
10712 OM 10712 OM OM1 10712 -0.550000 15.99940
10713 OM 10713 OM OM1 10713 -0.550000 15.99940
10714 OM 10714 OM OM1 10714 -0.550000 15.99940
10715 OM 10715 OM OM1 10715 -0.550000 15.99940
10716 OM 10716 OM OM1 10716 -0.550000 15.99940
10717 OM 10717 OM OM1 10717 -0.550000 15.99940
10718 OM 10718 OM OM1 10718 -0.550000 15.99940
10719 OM 10719 OM OM1 10719 -0.550000 15.99940
10720 OM 10720 OM OM1 10720 -0.550000 15.99940
10721 OM 10721 OM OM1 10721 -0.550000 15.99940
10722 OM 10722 OM OM1 10722 -0.550000 15.99940
10723 OM 10723 OM OM1 10723 -0.550000 15.99940
10724 OM 10724 OM OM1 10724 -0.550000 15.99940
10725 OM 10725 OM OM1 10725 -0.550000 15.99940
10726 OM 10726 OM OM1 10726 -0.550000 15.99940
10727 OM 10727 OM OM1 10727 -0.550000 15.99940
10728 OM 10728 OM OM1 10728 -0.550000 15.99940
10729 OM 10729 OM OM1 10729 -0.550000 15.99940
10730 OM 10730 OM OM1 10730 -0.550000 15.99940
10731 OM 10731 OM OM1 10731 -0.550000 15.99940
10732 OM 10732 OM OM1 10732 -0.550000 15.99940
10733 OM 10733 OM OM1 10733 -0.550000 15.99940
10734 OM 10734 OM OM1 10734 -0.550000 15.99940
10735 OM 10735 OM OM1 10735 -0.550000 15.99940
10736 OM 10736 OM OM1 10736 -0.550000 15.99940
10737 OM 10737 OM OM1 10737 -0.550000 15.99940
10738 OM 10738 OM OM1 10738 -0.550000 15.99940
10739 OM 10739 OM OM1 10739 -0.550000 15.99940
10740 OM 10740 OM OM1 10740 -0.550000 15.99940
10741 OM 10741 OM OM1 10741 -0.550000 15.99940
10742 OM 10742 OM OM1 10742 -0.550000 15.99940
10743 OM 10743 OM OM1 10743 -0.550000 15.99940
10744 OM 10744 OM OM1 10744 -0.550000 15.99940
10745 OM 10745 OM OM1 10745 -0.550000 15.99940
10746 OM 10746 OM OM1 10746 -0.550000 15.99940
10747 OM 10747 OM OM1 10747 -0.550000 15.99940
10748 OM 10748 OM OM1 10748 -0.550000 15.99940
10749 OM 10749 OM OM1 10749 -0.550000 15.99940
10750 OM 10750 OM OM1 10750 -0.550000 15.99940
10751 OM 10751 OM OM1 10751 -0.550000 15.99940
10752 OM 10752 OM OM1 10752 -0.550000 15.99940
10753 OM 10753 OM OM1 10753 -0.550000 15.99940
10754 OM 10754 OM OM1 10754 -0.550000 15.99940
10755 OM 10755 OM OM1 10755 -0.550000 15.99940
10756 OM 10756 OM OM1 10756 -0.550000 15.99940
10757 OM 10757 OM OM1 10757 -0.550000 15.99940
10758 OM 10758 OM OM1 10758 -0.550000 15.99940
10759 OM 10759 OM OM1 10759 -0.550000 15.99940
10760 OM 10760 OM OM1 10760 -0.550000 15.99940
10761 OM 10761 OM OM1 10761 -0.550000 15.99940
10762 OM 10762 OM OM1 10762 -0.550000 15.99940
10763 OM 10763 OM OM1 10763 -0.550000 15.99940
10764 OM 10764 OM OM1 10764 -0.550000 15.99940
10765 OM 10765 OM OM1 10765 -0.550000 15.99940
10766 OM 10766 OM OM1 10766 -0.550000 15.99940
10767 OM 10767 OM OM1 10767 -0.550000 15.99940
10768 OM 10768 OM OM1 10768 -0.550000 15.99940
10769 OM 10769 OM OM1 10769 -0.550000 15.99940
10770 OM 10770 OM OM1 10770 -0.550000 15.99940
10771 OM 10771 OM OM1 10771 -0.550000 15.99940
10772 OM 10772 OM OM1 10772 -0.550000 15.99940
10773 OM 10773 OM OM1 10773 -0.550000 15.99940
10774 OM 10774 OM OM1 10774 -0.550000 15.99940
10775 OM 10775 OM OM1 10775 -0.550000 15.99940
10776 OM 10776 OM OM1 10776 -0.550000 15.99940
10777 OM 10777 OM OM1 10777 -0.550000 15.99940
10778 OM 10778 OM OM1 10778 -0.550000 15.99940
10779 OM 10779 OM OM1 10779 -0.550000 15.99940
10780 OM 10780 OM OM1 10780 -0.550000 15.99940
10781 OM 10781 OM OM1 10781 -0.550000 15.99940
10782 OM 10782 OM OM1 10782 -0.550000 15.99940
10783 OM 10783 OM OM1 10783 -0.550000 15.99940
10784 OM 10784 OM OM1 10784 -0.550000 15.99940
10785 OM 10785 OM OM1 10785 -0.550000 15.99940
10786 OM 10786 OM OM1 10786 -0.550000 15.99940
10787 OM 10787 OM OM1 10787 -0.550000 15.99940
10788 OM 10788 OM OM1 10788 -0.550000 15.99940
10789 OM 10789 OM OM1 10789 -0.550000 15.99940
10790 OM 10790 OM OM1 10790 -0.550000 15.99940
10791 OM 10791 OM OM1 10791 -0.550000 15.99940
10792 OM 10792 OM OM1 10792 -0.550000 15.99940
10793 OM 10793 OM OM1 10793 -0.550000 15.99940
10794 OM 10794 OM OM1 10794 -0.550000 15.99940
10795 OM 10795 OM OM1 10795 -0.550000 15.99940
10796 OM 10796 OM OM1 10796 -0.550000 15.99940
10797 OM 10797 OM OM1 10797 -0.550000 15.99940
10798 OM 10798 OM OM1 10798 -0.550000 15.99940
10799 OM 10799 OM OM1 10799 -0.550000 15.99940
10800 OM 10800 OM OM1 10800 -0.550000 15.99940
10801 OM 10801 OM OM1 10801 -0.550000 15.99940
10802 OM 10802 OM OM1 10802 -0.550000 15.99940
10803 OM 10803 OM OM1 10803 -0.550000 15.99940
10804 OM 10804 OM OM1 10804 -0.550000 15.99940
10805 OM 10805 OM OM1 10805 -0.550000 15.99940
10806 OM 10806 OM OM1 10806 -0.550000 15.99940
10807 OM 10807 OM OM1 10807 -0.550000 15.99940
10808 OM 10808 OM OM1 10808 -0.550000 15.99940
10809 OM 10809 OM OM1 10809 -0.550000 15.99940
10810 OM 10810 OM OM1 10810 -0.550000 15.99940
10811 OM 10811 OM OM1 10811 -0.550000 15.99940
10812 OM 10812 OM OM1 10812 -0.550000 15.99940
10813 OM 10813 OM OM1 10813 -0.550000 15.99940
10814 OM 10814 OM OM1 10814 -0.550000 15.99940
10815 OM 10815 OM OM1 10815 -0.550000 15.99940
10816 OM 10816 OM OM1 10816 -0.550000 15.99940
10817 OM 10817 OM OM1 10817 -0.550000 15.99940
10818 OM 10818 OM OM1 10818 -0.550000 15.99940
10819 OM 10819 OM OM1 10819 -0.550000 15.99940
10820 OM 10820 OM OM1 10820 -0.550000 15.99940
10821 OM 10821 OM OM1 10821 -0.550000 15.99940
10822 OM 10822 OM OM1 10822 -0.550000 15.99940
10823 OM 10823 OM OM1 10823 -0.550000 15.99940
10824 OM 10824 OM OM1 10824 -0.550000 15.99940
10825 OM 10825 OM OM1 10825 -0.550000 15.99940
10826 OM 10826 OM OM1 10826 -0.550000 15.99940
10827 OM 10827 OM OM1 10827 -0.550000 15.99940
10828 OM 10828 OM OM1 10828 -0.550000 15.99940
10829 OM 10829 OM OM1 10829 -0.550000 15.99940
10830 OM 10830 OM OM1 10830 -0.550000 15.99940
10831 OM 10831 OM OM1 10831 -0.550000 15.99940
10832 OM 10832 OM OM1 10832 -0.550000 15.99940
10833 OM 10833 OM OM1 10833 -0.550000 15.99940
10834 OM 10834 OM OM1 10834 -0.550000 15.99940
10835 OM 10835 OM OM1 10835 -0.550000 15.99940
10836 OM 10836 OM OM1 10836 -0.550000 15.99940
10837 OM 10837 OM OM1 10837 -0.550000 15.99940
10838 OM 10838 OM OM1 10838 -0.550000 15.99940
10839 OM 10839 OM OM1 10839 -0.550000 15.99940
10840 OM 10840 OM OM1 10840 -0.550000 15.99940
10841 OM 10841 OM OM1 10841 -0.550000 15.99940
10842 OM 10842 OM OM1 10842 -0.550000 15.99940
10843 OM 10843 OM OM1 10843 -0.550000 15.99940
10844 OM 10844 OM OM1 10844 -0.550000 15.99940
10845 OM 10845 OM OM1 10845 -0.550000 15.99940
10846 OM 10846 OM OM1 10846 -0.550000 15.99940
10847 OM 10847 OM OM1 10847 -0.550000 15.99940
10848 OM 10848 OM OM1 10848 -0.550000 15.99940
10849 OM 10849 OM OM1 10849 -0.550000 15.99940
10850 OM 10850 OM OM1 10850 -0.550000 15.99940
10851 OM 10851 OM OM1 10851 -0.550000 15.99940
10852 OM 10852 OM OM1 10852 -0.550000 15.99940
10853 OM 10853 OM OM1 10853 -0.550000 15.99940
10854 OM 10854 OM OM1 10854 -0.550000 15.99940
10855 OM 10855 OM OM1 10855 -0.550000 15.99940
10856 OM 10856 OM OM1 10856 -0.550000 15.99940
10857 OM 10857 OM OM1 10857 -0.550000 15.99940
10858 OM 10858 OM OM1 10858 -0.550000 15.99940
10859 OM 10859 OM OM1 10859 -0.550000 15.99940
10860 OM 10860 OM OM1 10860 -0.550000 15.99940
10861 OM 10861 OM OM1 10861 -0.550000 15.99940
10862 OM 10862 OM OM1 10862 -0.550000 15.99940
10863 OM 10863 OM OM1 10863 -0.550000 15.99940
10864 OM 10864 OM OM1 10864 -0.550000 15.99940
10865 OM 10865 OM OM1 10865 -0.550000 15.99940
10866 OM 10866 OM OM1 10866 -0.550000 15.99940
10867 OM 10867 OM OM1 10867 -0.550000 15.99940
10868 OM 10868 OM OM1 10868 -0.550000 15.99940
10869 OM 10869 OM OM1 10869 -0.550000 15.99940
10870 OM 10870 OM OM1 10870 -0.550000 15.99940
10871 OM 10871 OM OM1 10871 -0.550000 15.99940
10872 OM 10872 OM OM1 10872 -0.550000 15.99940
10873 OM 10873 OM OM1 10873 -0.550000 15.99940
10874 OM 10874 OM OM1 10874 -0.550000 15.99940
10875 OM 10875 OM OM1 10875 -0.550000 15.99940
10876 OM 10876 OM OM1 10876 -0.550000 15.99940
10877 OM 10877 OM OM1 10877 -0.550000 15.99940
10878 OM 10878 OM OM1 10878 -0.550000 15.99940
10879 OM 10879 OM OM1 10879 -0.550000 15.99940
10880 OM 10880 OM OM1 10880 -0.550000 15.99940
10881 OM 10881 OM OM1 10881 -0.550000 15.99940
10882 OM 10882 OM OM1 10882 -0.550000 15.99940
10883 OM 10883 OM OM1 10883 -0.550000 15.99940
10884 OM 10884 OM OM1 10884 -0.550000 15.99940
10885 OM 10885 OM OM1 10885 -0.550000 15.99940
10886 OM 10886 OM OM1 10886 -0.550000 15.99940
10887 OM 10887 OM OM1 10887 -0.550000 15.99940
10888 OM 10888 OM OM1 10888 -0.550000 15.99940
10889 OM 10889 OM OM1 10889 -0.550000 15.99940
10890 OM 10890 OM OM1 10890 -0.550000 15.99940
10891 OM 10891 OM OM1 10891 -0.550000 15.99940
10892 OM 10892 OM OM1 10892 -0.550000 15.99940
10893 OM 10893 OM OM1 10893 -0.550000 15.99940
10894 OM 10894 OM OM1 10894 -0.550000 15.99940
10895 OM 10895 OM OM1 10895 -0.550000 15.99940
10896 OM 10896 OM OM1 10896 -0.550000 15.99940
10897 OM 10897 OM OM1 10897 -0.550000 15.99940
10898 OM 10898 OM OM1 10898 -0.550000 15.99940
10899 OM 10899 OM OM1 10899 -0.550000 15.99940
10900 OM 10900 OM OM1 10900 -0.550000 15.99940
10901 OM 10901 OM OM1 10901 -0.550000 15.99940
10902 OM 10902 OM OM1 10902 -0.550000 15.99940
10903 OM 10903 OM OM1 10903 -0.550000 15.99940
10904 OM 10904 OM OM1 10904 -0.550000 15.99940
10905 OM 10905 OM OM1 10905 -0.550000 15.99940
10906 OM 10906 OM OM1 10906 -0.550000 15.99940
10907 OM 10907 OM OM1 10907 -0.550000 15.99940
10908 OM 10908 OM OM1 10908 -0.550000 15.99940
10909 OM 10909 OM OM1 10909 -0.550000 15.99940
10910 OM 10910 OM OM1 10910 -0.550000 15.99940
10911 OM 10911 OM OM1 10911 -0.550000 15.99940
10912 OM 10912 OM OM1 10912 -0.550000 15.99940
10913 OM 10913 OM OM1 10913 -0.550000 15.99940
10914 OM 10914 OM OM1 10914 -0.550000 15.99940
10915 OM 10915 OM OM1 10915 -0.550000 15.99940
10916 OM 10916 OM OM1 10916 -0.550000 15.99940
10917 OM 10917 OM OM1 10917 -0.550000 15.99940
10918 OM 10918 OM OM1 10918 -0.550000 15.99940
10919 OM 10919 OM OM1 10919 -0.550000 15.99940
10920 OM 10920 OM OM1 10920 -0.550000 15.99940
10921 OM 10921 OM OM1 10921 -0.550000 15.99940
10922 OM 10922 OM OM1 10922 -0.550000 15.99940
10923 OM 10923 OM OM1 10923 -0.550000 15.99940
10924 OM 10924 OM OM1 10924 -0.550000 15.99940
10925 OM 10925 OM OM1 10925 -0.550000 15.99940
10926 OM 10926 OM OM1 10926 -0.550000 15.99940
10927 OM 10927 OM OM1 10927 -0.550000 15.99940
10928 OM 10928 OM OM1 10928 -0.550000 15.99940
10929 OM 10929 OM OM1 10929 -0.550000 15.99940
10930 OM 10930 OM OM1 10930 -0.550000 15.99940
10931 OM 10931 OM OM1 10931 -0.550000 15.99940
10932 OM 10932 OM OM1 10932 -0.550000 15.99940
10933 OM 10933 OM OM1 10933 -0.550000 15.99940
10934 OM 10934 OM OM1 10934 -0.550000 15.99940
10935 OM 10935 OM OM1 10935 -0.550000 15.99940
10936 OM 10936 OM OM1 10936 -0.550000 15.99940
10937 OM 10937 OM OM1 10937 -0.550000 15.99940
10938 OM 10938 OM OM1 10938 -0.550000 15.99940
10939 OM 10939 OM OM1 10939 -0.550000 15.99940
10940 OM 10940 OM OM1 10940 -0.550000 15.99940
10941 OM 10941 OM OM1 10941 -0.550000 15.99940
10942 OM 10942 OM OM1 10942 -0.550000 15.99940
10943 OM 10943 OM OM1 10943 -0.550000 15.99940
10944 OM 10944 OM OM1 10944 -0.550000 15.99940
10945 OM 10945 OM OM1 10945 -0.550000 15.99940
10946 OM 10946 OM OM1 10946 -0.550000 15.99940
10947 OM 10947 OM OM1 10947 -0.550000 15.99940
10948 OM 10948 OM OM1 10948 -0.550000 15.99940
10949 OM 10949 OM OM1 10949 -0.550000 15.99940
10950 OM 10950 OM OM1 10950 -0.550000 15.99940
10951 OM 10951 OM OM1 10951 -0.550000 15.99940
10952 OM 10952 OM OM1 10952 -0.550000 15.99940
10953 OM 10953 OM OM1 10953 -0.550000 15.99940
10954 OM 10954 OM OM1 10954 -0.550000 15.99940
10955 OM 10955 OM OM1 10955 -0.550000 15.99940
10956 OM 10956 OM OM1 10956 -0.550000 15.99940
10957 OM 10957 OM OM1 10957 -0.550000 15.99940
10958 OM 10958 OM OM1 10958 -0.550000 15.99940
10959 OM 10959 OM OM1 10959 -0.550000 15.99940
10960 OM 10960 OM OM1 10960 -0.550000 15.99940
10961 OM 10961 OM OM1 10961 -0.550000 15.99940
10962 OM 10962 OM OM1 10962 -0.550000 15.99940
10963 OM 10963 OM OM1 10963 -0.550000 15.99940
10964 OM 10964 OM OM1 10964 -0.550000 15.99940
10965 OM 10965 OM OM1 10965 -0.550000 15.99940
10966 OM 10966 OM OM1 10966 -0.550000 15.99940
10967 OM 10967 OM OM1 10967 -0.550000 15.99940
10968 OM 10968 OM OM1 10968 -0.550000 15.99940
10969 OM 10969 OM OM1 10969 -0.550000 15.99940
10970 OM 10970 OM OM1 10970 -0.550000 15.99940
10971 OM 10971 OM OM1 10971 -0.550000 15.99940
10972 OM 10972 OM OM1 10972 -0.550000 15.99940
10973 OM 10973 OM OM1 10973 -0.550000 15.99940
10974 OM 10974 OM OM1 10974 -0.550000 15.99940
10975 OM 10975 OM OM1 10975 -0.550000 15.99940
10976 OM 10976 OM OM1 10976 -0.550000 15.99940
10977 OM 10977 OM OM1 10977 -0.550000 15.99940
10978 OM 10978 OM OM1 10978 -0.550000 15.99940
10979 OM 10979 OM OM1 10979 -0.550000 15.99940
10980 OM 10980 OM OM1 10980 -0.550000 15.99940
10981 OM 10981 OM OM1 10981 -0.550000 15.99940
10982 OM 10982 OM OM1 10982 -0.550000 15.99940
10983 OM 10983 OM OM1 10983 -0.550000 15.99940
10984 OM 10984 OM OM1 10984 -0.550000 15.99940
10985 OM 10985 OM OM1 10985 -0.550000 15.99940
10986 OM 10986 OM OM1 10986 -0.550000 15.99940
10987 OM 10987 OM OM1 10987 -0.550000 15.99940
10988 OM 10988 OM OM1 10988 -0.550000 15.99940
10989 OM 10989 OM OM1 10989 -0.550000 15.99940
10990 OM 10990 OM OM1 10990 -0.550000 15.99940
10991 OM 10991 OM OM1 10991 -0.550000 15.99940
10992 OM 10992 OM OM1 10992 -0.550000 15.99940
10993 OM 10993 OM OM1 10993 -0.550000 15.99940
10994 OM 10994 OM OM1 10994 -0.550000 15.99940
10995 OM 10995 OM OM1 10995 -0.550000 15.99940
10996 OM 10996 OM OM1 10996 -0.550000 15.99940
10997 OM 10997 OM OM1 10997 -0.550000 15.99940
10998 OM 10998 OM OM1 10998 -0.550000 15.99940
10999 OM 10999 OM OM1 10999 -0.550000 15.99940
11000 OM 11000 OM OM1 11000 -0.550000 15.99940
11001 OM 11001 OM OM1 11001 -0.550000 15.99940
11002 OM 11002 OM OM1 11002 -0.550000 15.99940
11003 OM 11003 OM OM1 11003 -0.550000 15.99940
11004 OM 11004 OM OM1 11004 -0.550000 15.99940
11005 OM 11005 OM OM1 11005 -0.550000 15.99940
11006 OM 11006 OM OM1 11006 -0.550000 15.99940
11007 OM 11007 OM OM1 11007 -0.550000 15.99940
11008 OM 11008 OM OM1 11008 -0.550000 15.99940
11009 OM 11009 OM OM1 11009 -0.550000 15.99940
11010 OM 11010 OM OM1 11010 -0.550000 15.99940
11011 OM 11011 OM OM1 11011 -0.550000 15.99940
11012 OM 11012 OM OM1 11012 -0.550000 15.99940
11013 OM 11013 OM OM1 11013 -0.550000 15.99940
11014 OM 11014 OM OM1 11014 -0.550000 15.99940
11015 OM 11015 OM OM1 11015 -0.550000 15.99940
11016 OM 11016 OM OM1 11016 -0.550000 15.99940
11017 OM 11017 OM OM1 11017 -0.550000 15.99940
11018 OM 11018 OM OM1 11018 -0.550000 15.99940
11019 OM 11019 OM OM1 11019 -0.550000 15.99940
11020 OM 11020 OM OM1 11020 -0.550000 15.99940
11021 OM 11021 OM OM1 11021 -0.550000 15.99940
11022 OM 11022 OM OM1 11022 -0.550000 15.99940
11023 OM 11023 OM OM1 11023 -0.550000 15.99940
11024 OM 11024 OM OM1 11024 -0.550000 15.99940
11025 OM 11025 OM OM1 11025 -0.550000 15.99940
11026 OM 11026 OM OM1 11026 -0.550000 15.99940
11027 OM 11027 OM OM1 11027 -0.550000 15.99940
11028 OM 11028 OM OM1 11028 -0.550000 15.99940
11029 OM 11029 OM OM1 11029 -0.550000 15.99940
11030 OM 11030 OM OM1 11030 -0.550000 15.99940
11031 OM 11031 OM OM1 11031 -0.550000 15.99940
11032 OM 11032 OM OM1 11032 -0.550000 15.99940
11033 OM 11033 OM OM1 11033 -0.550000 15.99940
11034 OM 11034 OM OM1 11034 -0.550000 15.99940
11035 OM 11035 OM OM1 11035 -0.550000 15.99940
11036 OM 11036 OM OM1 11036 -0.550000 15.99940
11037 OM 11037 OM OM1 11037 -0.550000 15.99940
11038 OM 11038 OM OM1 11038 -0.550000 15.99940
11039 OM 11039 OM OM1 11039 -0.550000 15.99940
11040 OM 11040 OM OM1 11040 -0.550000 15.99940
11041 OM 11041 OM OM1 11041 -0.550000 15.99940
11042 OM 11042 OM OM1 11042 -0.550000 15.99940
11043 OM 11043 OM OM1 11043 -0.550000 15.99940
11044 OM 11044 OM OM1 11044 -0.550000 15.99940
11045 OM 11045 OM OM1 11045 -0.550000 15.99940
11046 OM 11046 OM OM1 11046 -0.550000 15.99940
11047 OM 11047 OM OM1 11047 -0.550000 15.99940
11048 OM 11048 OM OM1 11048 -0.550000 15.99940
11049 OM 11049 OM OM1 11049 -0.550000 15.99940
11050 OM 11050 OM OM1 11050 -0.550000 15.99940
11051 OM 11051 OM OM1 11051 -0.550000 15.99940
11052 OM 11052 OM OM1 11052 -0.550000 15.99940
11053 OM 11053 OM OM1 11053 -0.550000 15.99940
11054 OM 11054 OM OM1 11054 -0.550000 15.99940
11055 OM 11055 OM OM1 11055 -0.550000 15.99940
11056 OM 11056 OM OM1 11056 -0.550000 15.99940
11057 OM 11057 OM OM1 11057 -0.550000 15.99940
11058 OM 11058 OM OM1 11058 -0.550000 15.99940
11059 OM 11059 OM OM1 11059 -0.550000 15.99940
11060 OM 11060 OM OM1 11060 -0.550000 15.99940
11061 OM 11061 OM OM1 11061 -0.550000 15.99940
11062 OM 11062 OM OM1 11062 -0.550000 15.99940
11063 OM 11063 OM OM1 11063 -0.550000 15.99940
11064 OM 11064 OM OM1 11064 -0.550000 15.99940
11065 OM 11065 OM OM1 11065 -0.550000 15.99940
11066 OM 11066 OM OM1 11066 -0.550000 15.99940
11067 OM 11067 OM OM1 11067 -0.550000 15.99940
11068 OM 11068 OM OM1 11068 -0.550000 15.99940
11069 OM 11069 OM OM1 11069 -0.550000 15.99940
11070 OM 11070 OM OM1 11070 -0.550000 15.99940
11071 OM 11071 OM OM1 11071 -0.550000 15.99940
11072 OM 11072 OM OM1 11072 -0.550000 15.99940
11073 OM 11073 OM OM1 11073 -0.550000 15.99940
11074 OM 11074 OM OM1 11074 -0.550000 15.99940
11075 OM 11075 OM OM1 11075 -0.550000 15.99940
11076 OM 11076 OM OM1 11076 -0.550000 15.99940
11077 OM 11077 OM OM1 11077 -0.550000 15.99940
11078 OM 11078 OM OM1 11078 -0.550000 15.99940
11079 OM 11079 OM OM1 11079 -0.550000 15.99940
11080 OM 11080 OM OM1 11080 -0.550000 15.99940
11081 OM 11081 OM OM1 11081 -0.550000 15.99940
11082 OM 11082 OM OM1 11082 -0.550000 15.99940
11083 OM 11083 OM OM1 11083 -0.550000 15.99940
11084 OM 11084 OM OM1 11084 -0.550000 15.99940
11085 OM 11085 OM OM1 11085 -0.550000 15.99940
11086 OM 11086 OM OM1 11086 -0.550000 15.99940
11087 OM 11087 OM OM1 11087 -0.550000 15.99940
11088 OM 11088 OM OM1 11088 -0.550000 15.99940
11089 OM 11089 OM OM1 11089 -0.550000 15.99940
11090 OM 11090 OM OM1 11090 -0.550000 15.99940
11091 OM 11091 OM OM1 11091 -0.550000 15.99940
11092 OM 11092 OM OM1 11092 -0.550000 15.99940
11093 OM 11093 OM OM1 11093 -0.550000 15.99940
11094 OM 11094 OM OM1 11094 -0.550000 15.99940
11095 OM 11095 OM OM1 11095 -0.550000 15.99940
11096 OM 11096 OM OM1 11096 -0.550000 15.99940
11097 OM 11097 OM OM1 11097 -0.550000 15.99940
11098 OM 11098 OM OM1 11098 -0.550000 15.99940
11099 OM 11099 OM OM1 11099 -0.550000 15.99940
11100 OM 11100 OM OM1 11100 -0.550000 15.99940
11101 OM 11101 OM OM1 11101 -0.550000 15.99940
11102 OM 11102 OM OM1 11102 -0.550000 15.99940
11103 OM 11103 OM OM1 11103 -0.550000 15.99940
11104 OM 11104 OM OM1 11104 -0.550000 15.99940
11105 OM 11105 OM OM1 11105 -0.550000 15.99940
11106 OM 11106 OM OM1 11106 -0.550000 15.99940
11107 OM 11107 OM OM1 11107 -0.550000 15.99940
11108 OM 11108 OM OM1 11108 -0.550000 15.99940
11109 OM 11109 OM OM1 11109 -0.550000 15.99940
11110 OM 11110 OM OM1 11110 -0.550000 15.99940
11111 OM 11111 OM OM1 11111 -0.550000 15.99940
11112 OM 11112 OM OM1 11112 -0.550000 15.99940
11113 OM 11113 OM OM1 11113 -0.550000 15.99940
11114 OM 11114 OM OM1 11114 -0.550000 15.99940
11115 OM 11115 OM OM1 11115 -0.550000 15.99940
11116 OM 11116 OM OM1 11116 -0.550000 15.99940
11117 OM 11117 OM OM1 11117 -0.550000 15.99940
11118 OM 11118 OM OM1 11118 -0.550000 15.99940
11119 OM 11119 OM OM1 11119 -0.550000 15.99940
11120 OM 11120 OM OM1 11120 -0.550000 15.99940
11121 OM 11121 OM OM1 11121 -0.550000 15.99940
11122 OM 11122 OM OM1 11122 -0.550000 15.99940
11123 OM 11123 OM OM1 11123 -0.550000 15.99940
11124 OM 11124 OM OM1 11124 -0.550000 15.99940
11125 OM 11125 OM OM1 11125 -0.550000 15.99940
11126 OM 11126 OM OM1 11126 -0.550000 15.99940
11127 OM 11127 OM OM1 11127 -0.550000 15.99940
11128 OM 11128 OM OM1 11128 -0.550000 15.99940
11129 OM 11129 OM OM1 11129 -0.550000 15.99940
11130 OM 11130 OM OM1 11130 -0.550000 15.99940
11131 OM 11131 OM OM1 11131 -0.550000 15.99940
11132 OM 11132 OM OM1 11132 -0.550000 15.99940
11133 OM 11133 OM OM1 11133 -0.550000 15.99940
11134 OM 11134 OM OM1 11134 -0.550000 15.99940
11135 OM 11135 OM OM1 11135 -0.550000 15.99940
11136 OM 11136 OM OM1 11136 -0.550000 15.99940
11137 OM 11137 OM OM1 11137 -0.550000 15.99940
11138 OM 11138 OM OM1 11138 -0.550000 15.99940
11139 OM 11139 OM OM1 11139 -0.550000 15.99940
11140 OM 11140 OM OM1 11140 -0.550000 15.99940
11141 OM 11141 OM OM1 11141 -0.550000 15.99940
11142 OM 11142 OM OM1 11142 -0.550000 15.99940
11143 OM 11143 OM OM1 11143 -0.550000 15.99940
11144 OM 11144 OM OM1 11144 -0.550000 15.99940
11145 OM 11145 OM OM1 11145 -0.550000 15.99940
11146 OM 11146 OM OM1 11146 -0.550000 15.99940
11147 OM 11147 OM OM1 11147 -0.550000 15.99940
11148 OM 11148 OM OM1 11148 -0.550000 15.99940
11149 OM 11149 OM OM1 11149 -0.550000 15.99940
11150 OM 11150 OM OM1 11150 -0.550000 15.99940
11151 OM 11151 OM OM1 11151 -0.550000 15.99940
11152 OM 11152 OM OM1 11152 -0.550000 15.99940
11153 OM 11153 OM OM1 11153 -0.550000 15.99940
11154 OM 11154 OM OM1 11154 -0.550000 15.99940
11155 OM 11155 OM OM1 11155 -0.550000 15.99940
11156 OM 11156 OM OM1 11156 -0.550000 15.99940
11157 OM 11157 OM OM1 11157 -0.550000 15.99940
11158 OM 11158 OM OM1 11158 -0.550000 15.99940
11159 OM 11159 OM OM1 11159 -0.550000 15.99940
11160 OM 11160 OM OM1 11160 -0.550000 15.99940
11161 OM 11161 OM OM1 11161 -0.550000 15.99940
11162 OM 11162 OM OM1 11162 -0.550000 15.99940
11163 OM 11163 OM OM1 11163 -0.550000 15.99940
11164 OM 11164 OM OM1 11164 -0.550000 15.99940
11165 OM 11165 OM OM1 11165 -0.550000 15.99940
11166 OM 11166 OM OM1 11166 -0.550000 15.99940
11167 OM 11167 OM OM1 11167 -0.550000 15.99940
11168 OM 11168 OM OM1 11168 -0.550000 15.99940
11169 OM 11169 OM OM1 11169 -0.550000 15.99940
11170 OM 11170 OM OM1 11170 -0.550000 15.99940
11171 OM 11171 OM OM1 11171 -0.550000 15.99940
11172 OM 11172 OM OM1 11172 -0.550000 15.99940
11173 OM 11173 OM OM1 11173 -0.550000 15.99940
11174 OM 11174 OM OM1 11174 -0.550000 15.99940
11175 OM 11175 OM OM1 11175 -0.550000 15.99940
11176 OM 11176 OM OM1 11176 -0.550000 15.99940
11177 OM 11177 OM OM1 11177 -0.550000 15.99940
11178 OM 11178 OM OM1 11178 -0.550000 15.99940
11179 OM 11179 OM OM1 11179 -0.550000 15.99940
11180 OM 11180 OM OM1 11180 -0.550000 15.99940
11181 OM 11181 OM OM1 11181 -0.550000 15.99940
11182 OM 11182 OM OM1 11182 -0.550000 15.99940
11183 OM 11183 OM OM1 11183 -0.550000 15.99940
11184 OM 11184 OM OM1 11184 -0.550000 15.99940
11185 OM 11185 OM OM1 11185 -0.550000 15.99940
11186 OM 11186 OM OM1 11186 -0.550000 15.99940
11187 OM 11187 OM OM1 11187 -0.550000 15.99940
11188 OM 11188 OM OM1 11188 -0.550000 15.99940
11189 OM 11189 OM OM1 11189 -0.550000 15.99940
11190 OM 11190 OM OM1 11190 -0.550000 15.99940
11191 OM 11191 OM OM1 11191 -0.550000 15.99940
11192 OM 11192 OM OM1 11192 -0.550000 15.99940
11193 OM 11193 OM OM1 11193 -0.550000 15.99940
11194 OM 11194 OM OM1 11194 -0.550000 15.99940
11195 OM 11195 OM OM1 11195 -0.550000 15.99940
11196 OM 11196 OM OM1 11196 -0.550000 15.99940
11197 OM 11197 OM OM1 11197 -0.550000 15.99940
11198 OM 11198 OM OM1 11198 -0.550000 15.99940
11199 OM 11199 OM OM1 11199 -0.550000 15.99940
11200 OM 11200 OM OM1 11200 -0.550000 15.99940
11201 OM 11201 OM OM1 11201 -0.550000 15.99940
11202 OM 11202 OM OM1 11202 -0.550000 15.99940
11203 OM 11203 OM OM1 11203 -0.550000 15.99940
11204 OM 11204 OM OM1 11204 -0.550000 15.99940
11205 OM 11205 OM OM1 11205 -0.550000 15.99940
11206 OM 11206 OM OM1 11206 -0.550000 15.99940
11207 OM 11207 OM OM1 11207 -0.550000 15.99940
11208 OM 11208 OM OM1 11208 -0.550000 15.99940
11209 OM 11209 OM OM1 11209 -0.550000 15.99940
11210 OM 11210 OM OM1 11210 -0.550000 15.99940
11211 OM 11211 OM OM1 11211 -0.550000 15.99940
11212 OM 11212 OM OM1 11212 -0.550000 15.99940
11213 OM 11213 OM OM1 11213 -0.550000 15.99940
11214 OM 11214 OM OM1 11214 -0.550000 15.99940
11215 OM 11215 OM OM1 11215 -0.550000 15.99940
11216 OM 11216 OM OM1 11216 -0.550000 15.99940
11217 OM 11217 OM OM1 11217 -0.550000 15.99940
11218 OM 11218 OM OM1 11218 -0.550000 15.99940
11219 OM 11219 OM OM1 11219 -0.550000 15.99940
11220 OM 11220 OM OM1 11220 -0.550000 15.99940
11221 OM 11221 OM OM1 11221 -0.550000 15.99940
11222 OM 11222 OM OM1 11222 -0.550000 15.99940
11223 OM 11223 OM OM1 11223 -0.550000 15.99940
11224 OM 11224 OM OM1 11224 -0.550000 15.99940
11225 OM 11225 OM OM1 11225 -0.550000 15.99940
11226 OM 11226 OM OM1 11226 -0.550000 15.99940
11227 SI 11227 SI SI1 11227 1.100000 28.08600
11228 SI 11228 SI SI1 11228 1.100000 28.08600
11229 SI 11229 SI SI1 11229 1.100000 28.08600
11230 SI 11230 SI SI1 11230 1.100000 28.08600
11231 SI 11231 SI SI1 11231 1.100000 28.08600
11232 SI 11232 SI SI1 11232 1.100000 28.08600
11233 SI 11233 SI SI1 11233 1.100000 28.08600
11234 SI 11234 SI SI1 11234 1.100000 28.08600
11235 SI 11235 SI SI1 11235 1.100000 28.08600
11236 SI 11236 SI SI1 11236 1.100000 28.08600
11237 SI 11237 SI SI1 11237 1.100000 28.08600
11238 SI 11238 SI SI1 11238 1.100000 28.08600
11239 SI 11239 SI SI1 11239 1.100000 28.08600
11240 SI 11240 SI SI1 11240 1.100000 28.08600
11241 SI 11241 SI SI1 11241 1.100000 28.08600
11242 SI 11242 SI SI1 11242 1.100000 28.08600
11243 SI 11243 SI SI1 11243 1.100000 28.08600
11244 SI 11244 SI SI1 11244 1.100000 28.08600
11245 SI 11245 SI SI1 11245 1.100000 28.08600
11246 SI 11246 SI SI1 11246 1.100000 28.08600
11247 SI 11247 SI SI1 11247 1.100000 28.08600
11248 SI 11248 SI SI1 11248 1.100000 28.08600
11249 SI 11249 SI SI1 11249 1.100000 28.08600
11250 SI 11250 SI SI1 11250 1.100000 28.08600
11251 SI 11251 SI SI1 11251 1.100000 28.08600
11252 SI 11252 SI SI1 11252 1.100000 28.08600
11253 SI 11253 SI SI1 11253 1.100000 28.08600
11254 SI 11254 SI SI1 11254 1.100000 28.08600
11255 SI 11255 SI SI1 11255 1.100000 28.08600
11256 SI 11256 SI SI1 11256 1.100000 28.08600
11257 SI 11257 SI SI1 11257 1.100000 28.08600
11258 SI 11258 SI SI1 11258 1.100000 28.08600
11259 SI 11259 SI SI1 11259 1.100000 28.08600
11260 SI 11260 SI SI1 11260 1.100000 28.08600
11261 SI 11261 SI SI1 11261 1.100000 28.08600
11262 SI 11262 SI SI1 11262 1.100000 28.08600
11263 SI 11263 SI SI1 11263 1.100000 28.08600
11264 SI 11264 SI SI1 11264 1.100000 28.08600
11265 SI 11265 SI SI1 11265 1.100000 28.08600
11266 SI 11266 SI SI1 11266 1.100000 28.08600
11267 SI 11267 SI SI1 11267 1.100000 28.08600
11268 SI 11268 SI SI1 11268 1.100000 28.08600
11269 SI 11269 SI SI1 11269 1.100000 28.08600
11270 SI 11270 SI SI1 11270 1.100000 28.08600
11271 SI 11271 SI SI1 11271 1.100000 28.08600
11272 SI 11272 SI SI1 11272 1.100000 28.08600
11273 SI 11273 SI SI1 11273 1.100000 28.08600
11274 SI 11274 SI SI1 11274 1.100000 28.08600
11275 SI 11275 SI SI1 11275 1.100000 28.08600
11276 SI 11276 SI SI1 11276 1.100000 28.08600
11277 SI 11277 SI SI1 11277 1.100000 28.08600
11278 SI 11278 SI SI1 11278 1.100000 28.08600
11279 SI 11279 SI SI1 11279 1.100000 28.08600
11280 SI 11280 SI SI1 11280 1.100000 28.08600
11281 SI 11281 SI SI1 11281 1.100000 28.08600
11282 SI 11282 SI SI1 11282 1.100000 28.08600
11283 SI 11283 SI SI1 11283 1.100000 28.08600
11284 SI 11284 SI SI1 11284 1.100000 28.08600
11285 SI 11285 SI SI1 11285 1.100000 28.08600
11286 SI 11286 SI SI1 11286 1.100000 28.08600
11287 SI 11287 SI SI1 11287 1.100000 28.08600
11288 SI 11288 SI SI1 11288 1.100000 28.08600
11289 SI 11289 SI SI1 11289 1.100000 28.08600
11290 SI 11290 SI SI1 11290 1.100000 28.08600
11291 SI 11291 SI SI1 11291 1.100000 28.08600
11292 SI 11292 SI SI1 11292 1.100000 28.08600
11293 SI 11293 SI SI1 11293 1.100000 28.08600
11294 SI 11294 SI SI1 11294 1.100000 28.08600
11295 SI 11295 SI SI1 11295 1.100000 28.08600
11296 SI 11296 SI SI1 11296 1.100000 28.08600
11297 SI 11297 SI SI1 11297 1.100000 28.08600
11298 SI 11298 SI SI1 11298 1.100000 28.08600
11299 SI 11299 SI SI1 11299 1.100000 28.08600
11300 SI 11300 SI SI1 11300 1.100000 28.08600
11301 SI 11301 SI SI1 11301 1.100000 28.08600
11302 SI 11302 SI SI1 11302 1.100000 28.08600
11303 SI 11303 SI SI1 11303 1.100000 28.08600
11304 SI 11304 SI SI1 11304 1.100000 28.08600
11305 SI 11305 SI SI1 11305 1.100000 28.08600
11306 SI 11306 SI SI1 11306 1.100000 28.08600
11307 SI 11307 SI SI1 11307 1.100000 28.08600
11308 SI 11308 SI SI1 11308 1.100000 28.08600
11309 SI 11309 SI SI1 11309 1.100000 28.08600
11310 SI 11310 SI SI1 11310 1.100000 28.08600
11311 SI 11311 SI SI1 11311 1.100000 28.08600
11312 SI 11312 SI SI1 11312 1.100000 28.08600
11313 SI 11313 SI SI1 11313 1.100000 28.08600
11314 SI 11314 SI SI1 11314 1.100000 28.08600
11315 SI 11315 SI SI1 11315 1.100000 28.08600
11316 SI 11316 SI SI1 11316 1.100000 28.08600
11317 SI 11317 SI SI1 11317 1.100000 28.08600
11318 SI 11318 SI SI1 11318 1.100000 28.08600
11319 SI 11319 SI SI1 11319 1.100000 28.08600
11320 SI 11320 SI SI1 11320 1.100000 28.08600
11321 SI 11321 SI SI1 11321 1.100000 28.08600
11322 SI 11322 SI SI1 11322 1.100000 28.08600
11323 SI 11323 SI SI1 11323 1.100000 28.08600
11324 SI 11324 SI SI1 11324 1.100000 28.08600
11325 SI 11325 SI SI1 11325 1.100000 28.08600
11326 SI 11326 SI SI1 11326 1.100000 28.08600
11327 SI 11327 SI SI1 11327 1.100000 28.08600
11328 SI 11328 SI SI1 11328 1.100000 28.08600
11329 SI 11329 SI SI1 11329 1.100000 28.08600
11330 SI 11330 SI SI1 11330 1.100000 28.08600
11331 SI 11331 SI SI1 11331 1.100000 28.08600
11332 SI 11332 SI SI1 11332 1.100000 28.08600
11333 SI 11333 SI SI1 11333 1.100000 28.08600
11334 SI 11334 SI SI1 11334 1.100000 28.08600
11335 SI 11335 SI SI1 11335 1.100000 28.08600
11336 SI 11336 SI SI1 11336 1.100000 28.08600
11337 SI 11337 SI SI1 11337 1.100000 28.08600
11338 SI 11338 SI SI1 11338 1.100000 28.08600
11339 SI 11339 SI SI1 11339 1.100000 28.08600
11340 SI 11340 SI SI1 11340 1.100000 28.08600
11341 SI 11341 SI SI1 11341 1.100000 28.08600
11342 SI 11342 SI SI1 11342 1.100000 28.08600
11343 SI 11343 SI SI1 11343 1.100000 28.08600
11344 SI 11344 SI SI1 11344 1.100000 28.08600
11345 SI 11345 SI SI1 11345 1.100000 28.08600
11346 SI 11346 SI SI1 11346 1.100000 28.08600
11347 SI 11347 SI SI1 11347 1.100000 28.08600
11348 SI 11348 SI SI1 11348 1.100000 28.08600
11349 SI 11349 SI SI1 11349 1.100000 28.08600
11350 SI 11350 SI SI1 11350 1.100000 28.08600
11351 SI 11351 SI SI1 11351 1.100000 28.08600
11352 SI 11352 SI SI1 11352 1.100000 28.08600
11353 SI 11353 SI SI1 11353 1.100000 28.08600
11354 SI 11354 SI SI1 11354 1.100000 28.08600
11355 SI 11355 SI SI1 11355 1.100000 28.08600
11356 SI 11356 SI SI1 11356 1.100000 28.08600
11357 SI 11357 SI SI1 11357 1.100000 28.08600
11358 SI 11358 SI SI1 11358 1.100000 28.08600
11359 SI 11359 SI SI1 11359 1.100000 28.08600
11360 SI 11360 SI SI1 11360 1.100000 28.08600
11361 SI 11361 SI SI1 11361 1.100000 28.08600
11362 SI 11362 SI SI1 11362 1.100000 28.08600
11363 SI 11363 SI SI1 11363 1.100000 28.08600
11364 SI 11364 SI SI1 11364 1.100000 28.08600
11365 SI 11365 SI SI1 11365 1.100000 28.08600
11366 SI 11366 SI SI1 11366 1.100000 28.08600
11367 SI 11367 SI SI1 11367 1.100000 28.08600
11368 SI 11368 SI SI1 11368 1.100000 28.08600
11369 SI 11369 SI SI1 11369 1.100000 28.08600
11370 SI 11370 SI SI1 11370 1.100000 28.08600
11371 SI 11371 SI SI1 11371 1.100000 28.08600
11372 SI 11372 SI SI1 11372 1.100000 28.08600
11373 SI 11373 SI SI1 11373 1.100000 28.08600
11374 SI 11374 SI SI1 11374 1.100000 28.08600
11375 SI 11375 SI SI1 11375 1.100000 28.08600
11376 SI 11376 SI SI1 11376 1.100000 28.08600
11377 SI 11377 SI SI1 11377 1.100000 28.08600
11378 SI 11378 SI SI1 11378 1.100000 28.08600
11379 SI 11379 SI SI1 11379 1.100000 28.08600
11380 SI 11380 SI SI1 11380 1.100000 28.08600
11381 SI 11381 SI SI1 11381 1.100000 28.08600
11382 SI 11382 SI SI1 11382 1.100000 28.08600
11383 SI 11383 SI SI1 11383 1.100000 28.08600
11384 SI 11384 SI SI1 11384 1.100000 28.08600
11385 SI 11385 SI SI1 11385 1.100000 28.08600
11386 SI 11386 SI SI1 11386 1.100000 28.08600
11387 SI 11387 SI SI1 11387 1.100000 28.08600
11388 SI 11388 SI SI1 11388 1.100000 28.08600
11389 SI 11389 SI SI1 11389 1.100000 28.08600
11390 SI 11390 SI SI1 11390 1.100000 28.08600
11391 SI 11391 SI SI1 11391 1.100000 28.08600
11392 SI 11392 SI SI1 11392 1.100000 28.08600
11393 SI 11393 SI SI1 11393 1.100000 28.08600
11394 SI 11394 SI SI1 11394 1.100000 28.08600
11395 SI 11395 SI SI1 11395 1.100000 28.08600
11396 SI 11396 SI SI1 11396 1.100000 28.08600
11397 SI 11397 SI SI1 11397 1.100000 28.08600
11398 SI 11398 SI SI1 11398 1.100000 28.08600
11399 SI 11399 SI SI1 11399 1.100000 28.08600
11400 SI 11400 SI SI1 11400 1.100000 28.08600
11401 SI 11401 SI SI1 11401 1.100000 28.08600
11402 SI 11402 SI SI1 11402 1.100000 28.08600
11403 SI 11403 SI SI1 11403 1.100000 28.08600
11404 SI 11404 SI SI1 11404 1.100000 28.08600
11405 SI 11405 SI SI1 11405 1.100000 28.08600
11406 SI 11406 SI SI1 11406 1.100000 28.08600
11407 SI 11407 SI SI1 11407 1.100000 28.08600
11408 SI 11408 SI SI1 11408 1.100000 28.08600
11409 SI 11409 SI SI1 11409 1.100000 28.08600
11410 SI 11410 SI SI1 11410 1.100000 28.08600
11411 SI 11411 SI SI1 11411 1.100000 28.08600
11412 SI 11412 SI SI1 11412 1.100000 28.08600
11413 SI 11413 SI SI1 11413 1.100000 28.08600
11414 SI 11414 SI SI1 11414 1.100000 28.08600
11415 SI 11415 SI SI1 11415 1.100000 28.08600
11416 SI 11416 SI SI1 11416 1.100000 28.08600
11417 SI 11417 SI SI1 11417 1.100000 28.08600
11418 SI 11418 SI SI1 11418 1.100000 28.08600
11419 SI 11419 SI SI1 11419 1.100000 28.08600
11420 SI 11420 SI SI1 11420 1.100000 28.08600
11421 SI 11421 SI SI1 11421 1.100000 28.08600
11422 SI 11422 SI SI1 11422 1.100000 28.08600
11423 SI 11423 SI SI1 11423 1.100000 28.08600
11424 SI 11424 SI SI1 11424 1.100000 28.08600
11425 SI 11425 SI SI1 11425 1.100000 28.08600
11426 SI 11426 SI SI1 11426 1.100000 28.08600
11427 SI 11427 SI SI1 11427 1.100000 28.08600
11428 SI 11428 SI SI1 11428 1.100000 28.08600
11429 SI 11429 SI SI1 11429 1.100000 28.08600
11430 SI 11430 SI SI1 11430 1.100000 28.08600
11431 SI 11431 SI SI1 11431 1.100000 28.08600
11432 SI 11432 SI SI1 11432 1.100000 28.08600
11433 SI 11433 SI SI1 11433 1.100000 28.08600
11434 SI 11434 SI SI1 11434 1.100000 28.08600
11435 SI 11435 SI SI1 11435 1.100000 28.08600
11436 SI 11436 SI SI1 11436 1.100000 28.08600
11437 SI 11437 SI SI1 11437 1.100000 28.08600
11438 SI 11438 SI SI1 11438 1.100000 28.08600
11439 SI 11439 SI SI1 11439 1.100000 28.08600
11440 SI 11440 SI SI1 11440 1.100000 28.08600
11441 SI 11441 SI SI1 11441 1.100000 28.08600
11442 SI 11442 SI SI1 11442 1.100000 28.08600
11443 SI 11443 SI SI1 11443 1.100000 28.08600
11444 SI 11444 SI SI1 11444 1.100000 28.08600
11445 SI 11445 SI SI1 11445 1.100000 28.08600
11446 SI 11446 SI SI1 11446 1.100000 28.08600
11447 SI 11447 SI SI1 11447 1.100000 28.08600
11448 SI 11448 SI SI1 11448 1.100000 28.08600
11449 SI 11449 SI SI1 11449 1.100000 28.08600
11450 SI 11450 SI SI1 11450 1.100000 28.08600
11451 SI 11451 SI SI1 11451 1.100000 28.08600
11452 SI 11452 SI SI1 11452 1.100000 28.08600
11453 SI 11453 SI SI1 11453 1.100000 28.08600
11454 SI 11454 SI SI1 11454 1.100000 28.08600
11455 SI 11455 SI SI1 11455 1.100000 28.08600
11456 SI 11456 SI SI1 11456 1.100000 28.08600
11457 SI 11457 SI SI1 11457 1.100000 28.08600
11458 SI 11458 SI SI1 11458 1.100000 28.08600
11459 SI 11459 SI SI1 11459 1.100000 28.08600
11460 SI 11460 SI SI1 11460 1.100000 28.08600
11461 SI 11461 SI SI1 11461 1.100000 28.08600
11462 SI 11462 SI SI1 11462 1.100000 28.08600
11463 SI 11463 SI SI1 11463 1.100000 28.08600
11464 SI 11464 SI SI1 11464 1.100000 28.08600
11465 SI 11465 SI SI1 11465 1.100000 28.08600
11466 SI 11466 SI SI1 11466 1.100000 28.08600
11467 SI 11467 SI SI1 11467 1.100000 28.08600
11468 SI 11468 SI SI1 11468 1.100000 28.08600
11469 SI 11469 SI SI1 11469 1.100000 28.08600
11470 SI 11470 SI SI1 11470 1.100000 28.08600
11471 SI 11471 SI SI1 11471 1.100000 28.08600
11472 SI 11472 SI SI1 11472 1.100000 28.08600
11473 SI 11473 SI SI1 11473 1.100000 28.08600
11474 SI 11474 SI SI1 11474 1.100000 28.08600
11475 SI 11475 SI SI1 11475 1.100000 28.08600
11476 SI 11476 SI SI1 11476 1.100000 28.08600
11477 SI 11477 SI SI1 11477 1.100000 28.08600
11478 SI 11478 SI SI1 11478 1.100000 28.08600
11479 SI 11479 SI SI1 11479 1.100000 28.08600
11480 SI 11480 SI SI1 11480 1.100000 28.08600
11481 SI 11481 SI SI1 11481 1.100000 28.08600
11482 SI 11482 SI SI1 11482 1.100000 28.08600
11483 SI 11483 SI SI1 11483 1.100000 28.08600
11484 SI 11484 SI SI1 11484 1.100000 28.08600
11485 SI 11485 SI SI1 11485 1.100000 28.08600
11486 SI 11486 SI SI1 11486 1.100000 28.08600
11487 SI 11487 SI SI1 11487 1.100000 28.08600
11488 SI 11488 SI SI1 11488 1.100000 28.08600
11489 SI 11489 SI SI1 11489 1.100000 28.08600
11490 SI 11490 SI SI1 11490 1.100000 28.08600
11491 SI 11491 SI SI1 11491 1.100000 28.08600
11492 SI 11492 SI SI1 11492 1.100000 28.08600
11493 SI 11493 SI SI1 11493 1.100000 28.08600
11494 SI 11494 SI SI1 11494 1.100000 28.08600
11495 SI 11495 SI SI1 11495 1.100000 28.08600
11496 SI 11496 SI SI1 11496 1.100000 28.08600
11497 SI 11497 SI SI1 11497 1.100000 28.08600
11498 SI 11498 SI SI1 11498 1.100000 28.08600
11499 SI 11499 SI SI1 11499 1.100000 28.08600
11500 SI 11500 SI SI1 11500 1.100000 28.08600
11501 SI 11501 SI SI1 11501 1.100000 28.08600
11502 SI 11502 SI SI1 11502 1.100000 28.08600
11503 SI 11503 SI SI1 11503 1.100000 28.08600
11504 SI 11504 SI SI1 11504 1.100000 28.08600
11505 SI 11505 SI SI1 11505 1.100000 28.08600
11506 SI 11506 SI SI1 11506 1.100000 28.08600
11507 SI 11507 SI SI1 11507 1.100000 28.08600
11508 SI 11508 SI SI1 11508 1.100000 28.08600
11509 SI 11509 SI SI1 11509 1.100000 28.08600
11510 SI 11510 SI SI1 11510 1.100000 28.08600
11511 SI 11511 SI SI1 11511 1.100000 28.08600
11512 SI 11512 SI SI1 11512 1.100000 28.08600
11513 SI 11513 SI SI1 11513 1.100000 28.08600
11514 SI 11514 SI SI1 11514 1.100000 28.08600
11515 SI 11515 SI SI1 11515 1.100000 28.08600
11516 SI 11516 SI SI1 11516 1.100000 28.08600
11517 SI 11517 SI SI1 11517 1.100000 28.08600
11518 SI 11518 SI SI1 11518 1.100000 28.08600
11519 SI 11519 SI SI1 11519 1.100000 28.08600
11520 SI 11520 SI SI1 11520 1.100000 28.08600
11521 SI 11521 SI SI1 11521 1.100000 28.08600
11522 SI 11522 SI SI1 11522 1.100000 28.08600
11523 SI 11523 SI SI1 11523 1.100000 28.08600
11524 SI 11524 SI SI1 11524 1.100000 28.08600
11525 SI 11525 SI SI1 11525 1.100000 28.08600
11526 SI 11526 SI SI1 11526 1.100000 28.08600
11527 SI 11527 SI SI1 11527 1.100000 28.08600
11528 SI 11528 SI SI1 11528 1.100000 28.08600
11529 SI 11529 SI SI1 11529 1.100000 28.08600
11530 SI 11530 SI SI1 11530 1.100000 28.08600
11531 SI 11531 SI SI1 11531 1.100000 28.08600
11532 SI 11532 SI SI1 11532 1.100000 28.08600
11533 SI 11533 SI SI1 11533 1.100000 28.08600
11534 SI 11534 SI SI1 11534 1.100000 28.08600
11535 SI 11535 SI SI1 11535 1.100000 28.08600
11536 SI 11536 SI SI1 11536 1.100000 28.08600
11537 SI 11537 SI SI1 11537 1.100000 28.08600
11538 SI 11538 SI SI1 11538 1.100000 28.08600
11539 SI 11539 SI SI1 11539 1.100000 28.08600
11540 SI 11540 SI SI1 11540 1.100000 28.08600
11541 SI 11541 SI SI1 11541 1.100000 28.08600
11542 SI 11542 SI SI1 11542 1.100000 28.08600
11543 SI 11543 SI SI1 11543 1.100000 28.08600
11544 SI 11544 SI SI1 11544 1.100000 28.08600
11545 SI 11545 SI SI1 11545 1.100000 28.08600
11546 SI 11546 SI SI1 11546 1.100000 28.08600
11547 SI 11547 SI SI1 11547 1.100000 28.08600
11548 SI 11548 SI SI1 11548 1.100000 28.08600
11549 SI 11549 SI SI1 11549 1.100000 28.08600
11550 SI 11550 SI SI1 11550 1.100000 28.08600
11551 SI 11551 SI SI1 11551 1.100000 28.08600
11552 SI 11552 SI SI1 11552 1.100000 28.08600
11553 SI 11553 SI SI1 11553 1.100000 28.08600
11554 SI 11554 SI SI1 11554 1.100000 28.08600
11555 SI 11555 SI SI1 11555 1.100000 28.08600
11556 SI 11556 SI SI1 11556 1.100000 28.08600
11557 SI 11557 SI SI1 11557 1.100000 28.08600
11558 SI 11558 SI SI1 11558 1.100000 28.08600
11559 SI 11559 SI SI1 11559 1.100000 28.08600
11560 SI 11560 SI SI1 11560 1.100000 28.08600
11561 SI 11561 SI SI1 11561 1.100000 28.08600
11562 SI 11562 SI SI1 11562 1.100000 28.08600
11563 SI 11563 SI SI1 11563 1.100000 28.08600
11564 SI 11564 SI SI1 11564 1.100000 28.08600
11565 SI 11565 SI SI1 11565 1.100000 28.08600
11566 SI 11566 SI SI1 11566 1.100000 28.08600
11567 SI 11567 SI SI1 11567 1.100000 28.08600
11568 SI 11568 SI SI1 11568 1.100000 28.08600
11569 SI 11569 SI SI1 11569 1.100000 28.08600
11570 SI 11570 SI SI1 11570 1.100000 28.08600
11571 SI 11571 SI SI1 11571 1.100000 28.08600
11572 SI 11572 SI SI1 11572 1.100000 28.08600
11573 SI 11573 SI SI1 11573 1.100000 28.08600
11574 SI 11574 SI SI1 11574 1.100000 28.08600
11575 SI 11575 SI SI1 11575 1.100000 28.08600
11576 SI 11576 SI SI1 11576 1.100000 28.08600
11577 SI 11577 SI SI1 11577 1.100000 28.08600
11578 SI 11578 SI SI1 11578 1.100000 28.08600
11579 SI 11579 SI SI1 11579 1.100000 28.08600
11580 SI 11580 SI SI1 11580 1.100000 28.08600
11581 SI 11581 SI SI1 11581 1.100000 28.08600
11582 SI 11582 SI SI1 11582 1.100000 28.08600
11583 SI 11583 SI SI1 11583 1.100000 28.08600
11584 SI 11584 SI SI1 11584 1.100000 28.08600
11585 SI 11585 SI SI1 11585 1.100000 28.08600
11586 SI 11586 SI SI1 11586 1.100000 28.08600
11587 SI 11587 SI SI1 11587 1.100000 28.08600
11588 SI 11588 SI SI1 11588 1.100000 28.08600
11589 SI 11589 SI SI1 11589 1.100000 28.08600
11590 SI 11590 SI SI1 11590 1.100000 28.08600
11591 SI 11591 SI SI1 11591 1.100000 28.08600
11592 SI 11592 SI SI1 11592 1.100000 28.08600
11593 SI 11593 SI SI1 11593 1.100000 28.08600
11594 SI 11594 SI SI1 11594 1.100000 28.08600
11595 SI 11595 SI SI1 11595 1.100000 28.08600
11596 SI 11596 SI SI1 11596 1.100000 28.08600
11597 SI 11597 SI SI1 11597 1.100000 28.08600
11598 SI 11598 SI SI1 11598 1.100000 28.08600
11599 SI 11599 SI SI1 11599 1.100000 28.08600
11600 SI 11600 SI SI1 11600 1.100000 28.08600
11601 SI 11601 SI SI1 11601 1.100000 28.08600
11602 SI 11602 SI SI1 11602 1.100000 28.08600
11603 SI 11603 SI SI1 11603 1.100000 28.08600
11604 SI 11604 SI SI1 11604 1.100000 28.08600
11605 SI 11605 SI SI1 11605 1.100000 28.08600
11606 SI 11606 SI SI1 11606 1.100000 28.08600
11607 SI 11607 SI SI1 11607 1.100000 28.08600
11608 SI 11608 SI SI1 11608 1.100000 28.08600
11609 SI 11609 SI SI1 11609 1.100000 28.08600
11610 SI 11610 SI SI1 11610 1.100000 28.08600
11611 SI 11611 SI SI1 11611 1.100000 28.08600
11612 SI 11612 SI SI1 11612 1.100000 28.08600
11613 SI 11613 SI SI1 11613 1.100000 28.08600
11614 SI 11614 SI SI1 11614 1.100000 28.08600
11615 SI 11615 SI SI1 11615 1.100000 28.08600
11616 SI 11616 SI SI1 11616 1.100000 28.08600
11617 SI 11617 SI SI1 11617 1.100000 28.08600
11618 SI 11618 SI SI1 11618 1.100000 28.08600
11619 SI 11619 SI SI1 11619 1.100000 28.08600
11620 SI 11620 SI SI1 11620 1.100000 28.08600
11621 SI 11621 SI SI1 11621 1.100000 28.08600
11622 SI 11622 SI SI1 11622 1.100000 28.08600
11623 SI 11623 SI SI1 11623 1.100000 28.08600
11624 SI 11624 SI SI1 11624 1.100000 28.08600
11625 SI 11625 SI SI1 11625 1.100000 28.08600
11626 SI 11626 SI SI1 11626 1.100000 28.08600
11627 SI 11627 SI SI1 11627 1.100000 28.08600
11628 SI 11628 SI SI1 11628 1.100000 28.08600
11629 SI 11629 SI SI1 11629 1.100000 28.08600
11630 SI 11630 SI SI1 11630 1.100000 28.08600
11631 SI 11631 SI SI1 11631 1.100000 28.08600
11632 SI 11632 SI SI1 11632 1.100000 28.08600
11633 SI 11633 SI SI1 11633 1.100000 28.08600
11634 SI 11634 SI SI1 11634 1.100000 28.08600
11635 SI 11635 SI SI1 11635 1.100000 28.08600
11636 SI 11636 SI SI1 11636 1.100000 28.08600
11637 SI 11637 SI SI1 11637 1.100000 28.08600
11638 SI 11638 SI SI1 11638 1.100000 28.08600
11639 SI 11639 SI SI1 11639 1.100000 28.08600
11640 SI 11640 SI SI1 11640 1.100000 28.08600
11641 SI 11641 SI SI1 11641 1.100000 28.08600
11642 SI 11642 SI SI1 11642 1.100000 28.08600
11643 SI 11643 SI SI1 11643 1.100000 28.08600
11644 SI 11644 SI SI1 11644 1.100000 28.08600
11645 SI 11645 SI SI1 11645 1.100000 28.08600
11646 SI 11646 SI SI1 11646 1.100000 28.08600
11647 SI 11647 SI SI1 11647 1.100000 28.08600
11648 SI 11648 SI SI1 11648 1.100000 28.08600
11649 SI 11649 SI SI1 11649 1.100000 28.08600
11650 SI 11650 SI SI1 11650 1.100000 28.08600
11651 SI 11651 SI SI1 11651 1.100000 28.08600
11652 SI 11652 SI SI1 11652 1.100000 28.08600
11653 SI 11653 SI SI1 11653 1.100000 28.08600
11654 SI 11654 SI SI1 11654 1.100000 28.08600
11655 SI 11655 SI SI1 11655 1.100000 28.08600
11656 SI 11656 SI SI1 11656 1.100000 28.08600
11657 SI 11657 SI SI1 11657 1.100000 28.08600
11658 SI 11658 SI SI1 11658 1.100000 28.08600
11659 SI 11659 SI SI1 11659 1.100000 28.08600
11660 SI 11660 SI SI1 11660 1.100000 28.08600
11661 SI 11661 SI SI1 11661 1.100000 28.08600
11662 SI 11662 SI SI1 11662 1.100000 28.08600
11663 SI 11663 SI SI1 11663 1.100000 28.08600
11664 SI 11664 SI SI1 11664 1.100000 28.08600
11665 SI 11665 SI SI1 11665 1.100000 28.08600
11666 SI 11666 SI SI1 11666 1.100000 28.08600
11667 SI 11667 SI SI1 11667 1.100000 28.08600
11668 SI 11668 SI SI1 11668 1.100000 28.08600
11669 SI 11669 SI SI1 11669 1.100000 28.08600
11670 SI 11670 SI SI1 11670 1.100000 28.08600
11671 SI 11671 SI SI1 11671 1.100000 28.08600
11672 SI 11672 SI SI1 11672 1.100000 28.08600
11673 SI 11673 SI SI1 11673 1.100000 28.08600
11674 SI 11674 SI SI1 11674 1.100000 28.08600
11675 SI 11675 SI SI1 11675 1.100000 28.08600
11676 SI 11676 SI SI1 11676 1.100000 28.08600
11677 SI 11677 SI SI1 11677 1.100000 28.08600
11678 SI 11678 SI SI1 11678 1.100000 28.08600
11679 SI 11679 SI SI1 11679 1.100000 28.08600
11680 SI 11680 SI SI1 11680 1.100000 28.08600
11681 SI 11681 SI SI1 11681 1.100000 28.08600
11682 SI 11682 SI SI1 11682 1.100000 28.08600
11683 SI 11683 SI SI1 11683 1.100000 28.08600
11684 SI 11684 SI SI1 11684 1.100000 28.08600
11685 SI 11685 SI SI1 11685 1.100000 28.08600
11686 SI 11686 SI SI1 11686 1.100000 28.08600
11687 SI 11687 SI SI1 11687 1.100000 28.08600
11688 SI 11688 SI SI1 11688 1.100000 28.08600
11689 SI 11689 SI SI1 11689 1.100000 28.08600
11690 SI 11690 SI SI1 11690 1.100000 28.08600
11691 SI 11691 SI SI1 11691 1.100000 28.08600
11692 SI 11692 SI SI1 11692 1.100000 28.08600
11693 SI 11693 SI SI1 11693 1.100000 28.08600
11694 SI 11694 SI SI1 11694 1.100000 28.08600
11695 SI 11695 SI SI1 11695 1.100000 28.08600
11696 SI 11696 SI SI1 11696 1.100000 28.08600
11697 SI 11697 SI SI1 11697 1.100000 28.08600
11698 SI 11698 SI SI1 11698 1.100000 28.08600
11699 SI 11699 SI SI1 11699 1.100000 28.08600
11700 SI 11700 SI SI1 11700 1.100000 28.08600
11701 SI 11701 SI SI1 11701 1.100000 28.08600
11702 SI 11702 SI SI1 11702 1.100000 28.08600
11703 SI 11703 SI SI1 11703 1.100000 28.08600
11704 SI 11704 SI SI1 11704 1.100000 28.08600
11705 SI 11705 SI SI1 11705 1.100000 28.08600
11706 SI 11706 SI SI1 11706 1.100000 28.08600
11707 SI 11707 SI SI1 11707 1.100000 28.08600
11708 SI 11708 SI SI1 11708 1.100000 28.08600
11709 SI 11709 SI SI1 11709 1.100000 28.08600
11710 SI 11710 SI SI1 11710 1.100000 28.08600
11711 SI 11711 SI SI1 11711 1.100000 28.08600
11712 SI 11712 SI SI1 11712 1.100000 28.08600
11713 SI 11713 SI SI1 11713 1.100000 28.08600
11714 SI 11714 SI SI1 11714 1.100000 28.08600
11715 SI 11715 SI SI1 11715 1.100000 28.08600
11716 SI 11716 SI SI1 11716 1.100000 28.08600
11717 SI 11717 SI SI1 11717 1.100000 28.08600
11718 SI 11718 SI SI1 11718 1.100000 28.08600
11719 SI 11719 SI SI1 11719 1.100000 28.08600
11720 SI 11720 SI SI1 11720 1.100000 28.08600
11721 SI 11721 SI SI1 11721 1.100000 28.08600
11722 SI 11722 SI SI1 11722 1.100000 28.08600
11723 SI 11723 SI SI1 11723 1.100000 28.08600
11724 SI 11724 SI SI1 11724 1.100000 28.08600
11725 SI 11725 SI SI1 11725 1.100000 28.08600
11726 SI 11726 SI SI1 11726 1.100000 28.08600
11727 SI 11727 SI SI1 11727 1.100000 28.08600
11728 SI 11728 SI SI1 11728 1.100000 28.08600
11729 SI 11729 SI SI1 11729 1.100000 28.08600
11730 SI 11730 SI SI1 11730 1.100000 28.08600
11731 SI 11731 SI SI1 11731 1.100000 28.08600
11732 SI 11732 SI SI1 11732 1.100000 28.08600
11733 SI 11733 SI SI1 11733 1.100000 28.08600
11734 SI 11734 SI SI1 11734 1.100000 28.08600
11735 SI 11735 SI SI1 11735 1.100000 28.08600
11736 SI 11736 SI SI1 11736 1.100000 28.08600
11737 SI 11737 SI SI1 11737 1.100000 28.08600
11738 SI 11738 SI SI1 11738 1.100000 28.08600
11739 SI 11739 SI SI1 11739 1.100000 28.08600
11740 SI 11740 SI SI1 11740 1.100000 28.08600
11741 SI 11741 SI SI1 11741 1.100000 28.08600
11742 SI 11742 SI SI1 11742 1.100000 28.08600
11743 SI 11743 SI SI1 11743 1.100000 28.08600
11744 SI 11744 SI SI1 11744 1.100000 28.08600
11745 SI 11745 SI SI1 11745 1.100000 28.08600
11746 SI 11746 SI SI1 11746 1.100000 28.08600
11747 SI 11747 SI SI1 11747 1.100000 28.08600
11748 SI 11748 SI SI1 11748 1.100000 28.08600
11749 SI 11749 SI SI1 11749 1.100000 28.08600
11750 SI 11750 SI SI1 11750 1.100000 28.08600
11751 SI 11751 SI SI1 11751 1.100000 28.08600
11752 SI 11752 SI SI1 11752 1.100000 28.08600
11753 SI 11753 SI SI1 11753 1.100000 28.08600
11754 SI 11754 SI SI1 11754 1.100000 28.08600
11755 SI 11755 SI SI1 11755 1.100000 28.08600
11756 SI 11756 SI SI1 11756 1.100000 28.08600
11757 SI 11757 SI SI1 11757 1.100000 28.08600
11758 SI 11758 SI SI1 11758 1.100000 28.08600
11759 SI 11759 SI SI1 11759 1.100000 28.08600
11760 SI 11760 SI SI1 11760 1.100000 28.08600
11761 SI 11761 SI SI1 11761 1.100000 28.08600
11762 SI 11762 SI SI1 11762 1.100000 28.08600
11763 SI 11763 SI SI1 11763 1.100000 28.08600
11764 SI 11764 SI SI1 11764 1.100000 28.08600
11765 SI 11765 SI SI1 11765 1.100000 28.08600
11766 SI 11766 SI SI1 11766 1.100000 28.08600
11767 SI 11767 SI SI1 11767 1.100000 28.08600
11768 SI 11768 SI SI1 11768 1.100000 28.08600
11769 SI 11769 SI SI1 11769 1.100000 28.08600
11770 SI 11770 SI SI1 11770 1.100000 28.08600
11771 SI 11771 SI SI1 11771 1.100000 28.08600
11772 SI 11772 SI SI1 11772 1.100000 28.08600
11773 SI 11773 SI SI1 11773 1.100000 28.08600
11774 SI 11774 SI SI1 11774 1.100000 28.08600
11775 SI 11775 SI SI1 11775 1.100000 28.08600
11776 SI 11776 SI SI1 11776 1.100000 28.08600
11777 SI 11777 SI SI1 11777 1.100000 28.08600
11778 SI 11778 SI SI1 11778 1.100000 28.08600
11779 SI 11779 SI SI1 11779 1.100000 28.08600
11780 SI 11780 SI SI1 11780 1.100000 28.08600
11781 SI 11781 SI SI1 11781 1.100000 28.08600
11782 SI 11782 SI SI1 11782 1.100000 28.08600
11783 SI 11783 SI SI1 11783 1.100000 28.08600
11784 SI 11784 SI SI1 11784 1.100000 28.08600
11785 SI 11785 SI SI1 11785 1.100000 28.08600
11786 SI 11786 SI SI1 11786 1.100000 28.08600
11787 SI 11787 SI SI1 11787 1.100000 28.08600
11788 SI 11788 SI SI1 11788 1.100000 28.08600
11789 SI 11789 SI SI1 11789 1.100000 28.08600
11790 SI 11790 SI SI1 11790 1.100000 28.08600
11791 SI 11791 SI SI1 11791 1.100000 28.08600
11792 SI 11792 SI SI1 11792 1.100000 28.08600
11793 SI 11793 SI SI1 11793 1.100000 28.08600
11794 SI 11794 SI SI1 11794 1.100000 28.08600
11795 SI 11795 SI SI1 11795 1.100000 28.08600
11796 SI 11796 SI SI1 11796 1.100000 28.08600
11797 SI 11797 SI SI1 11797 1.100000 28.08600
11798 SI 11798 SI SI1 11798 1.100000 28.08600
11799 SI 11799 SI SI1 11799 1.100000 28.08600
11800 SI 11800 SI SI1 11800 1.100000 28.08600
11801 SI 11801 SI SI1 11801 1.100000 28.08600
11802 SI 11802 SI SI1 11802 1.100000 28.08600
11803 SI 11803 SI SI1 11803 1.100000 28.08600
11804 SI 11804 SI SI1 11804 1.100000 28.08600
11805 SI 11805 SI SI1 11805 1.100000 28.08600
11806 SI 11806 SI SI1 11806 1.100000 28.08600
11807 SI 11807 SI SI1 11807 1.100000 28.08600
11808 SI 11808 SI SI1 11808 1.100000 28.08600
11809 SI 11809 SI SI1 11809 1.100000 28.08600
11810 SI 11810 SI SI1 11810 1.100000 28.08600
11811 SI 11811 SI SI1 11811 1.100000 28.08600
11812 SI 11812 SI SI1 11812 1.100000 28.08600
11813 SI 11813 SI SI1 11813 1.100000 28.08600
11814 SI 11814 SI SI1 11814 1.100000 28.08600
11815 SI 11815 SI SI1 11815 1.100000 28.08600
11816 SI 11816 SI SI1 11816 1.100000 28.08600
11817 SI 11817 SI SI1 11817 1.100000 28.08600
11818 SI 11818 SI SI1 11818 1.100000 28.08600
11819 SI 11819 SI SI1 11819 1.100000 28.08600
11820 SI 11820 SI SI1 11820 1.100000 28.08600
11821 SI 11821 SI SI1 11821 1.100000 28.08600
11822 SI 11822 SI SI1 11822 1.100000 28.08600
11823 SI 11823 SI SI1 11823 1.100000 28.08600
11824 SI 11824 SI SI1 11824 1.100000 28.08600
11825 SI 11825 SI SI1 11825 1.100000 28.08600
11826 SI 11826 SI SI1 11826 1.100000 28.08600
11827 SI 11827 SI SI1 11827 1.100000 28.08600
11828 SI 11828 SI SI1 11828 1.100000 28.08600
11829 SI 11829 SI SI1 11829 1.100000 28.08600
11830 SI 11830 SI SI1 11830 1.100000 28.08600
11831 SI 11831 SI SI1 11831 1.100000 28.08600
11832 SI 11832 SI SI1 11832 1.100000 28.08600
11833 SI 11833 SI SI1 11833 1.100000 28.08600
11834 SI 11834 SI SI1 11834 1.100000 28.08600
11835 SI 11835 SI SI1 11835 1.100000 28.08600
11836 SI 11836 SI SI1 11836 1.100000 28.08600
11837 SI 11837 SI SI1 11837 1.100000 28.08600
11838 SI 11838 SI SI1 11838 1.100000 28.08600
11839 SI 11839 SI SI1 11839 1.100000 28.08600
11840 SI 11840 SI SI1 11840 1.100000 28.08600
11841 SI 11841 SI SI1 11841 1.100000 28.08600
11842 SI 11842 SI SI1 11842 1.100000 28.08600
11843 SI 11843 SI SI1 11843 1.100000 28.08600
11844 SI 11844 SI SI1 11844 1.100000 28.08600
11845 SI 11845 SI SI1 11845 1.100000 28.08600
11846 SI 11846 SI SI1 11846 1.100000 28.08600
11847 SI 11847 SI SI1 11847 1.100000 28.08600
11848 SI 11848 SI SI1 11848 1.100000 28.08600
11849 SI 11849 SI SI1 11849 1.100000 28.08600
11850 SI 11850 SI SI1 11850 1.100000 28.08600
11851 SI 11851 SI SI1 11851 1.100000 28.08600
11852 SI 11852 SI SI1 11852 1.100000 28.08600
11853 SI 11853 SI SI1 11853 1.100000 28.08600
11854 SI 11854 SI SI1 11854 1.100000 28.08600
11855 SI 11855 SI SI1 11855 1.100000 28.08600
11856 SI 11856 SI SI1 11856 1.100000 28.08600
11857 SI 11857 SI SI1 11857 1.100000 28.08600
11858 SI 11858 SI SI1 11858 1.100000 28.08600
11859 SI 11859 SI SI1 11859 1.100000 28.08600
11860 SI 11860 SI SI1 11860 1.100000 28.08600
11861 SI 11861 SI SI1 11861 1.100000 28.08600
11862 SI 11862 SI SI1 11862 1.100000 28.08600
11863 SI 11863 SI SI1 11863 1.100000 28.08600
11864 SI 11864 SI SI1 11864 1.100000 28.08600
11865 SI 11865 SI SI1 11865 1.100000 28.08600
11866 SI 11866 SI SI1 11866 1.100000 28.08600
11867 SI 11867 SI SI1 11867 1.100000 28.08600
11868 SI 11868 SI SI1 11868 1.100000 28.08600
11869 SI 11869 SI SI1 11869 1.100000 28.08600
11870 SI 11870 SI SI1 11870 1.100000 28.08600
11871 SI 11871 SI SI1 11871 1.100000 28.08600
11872 SI 11872 SI SI1 11872 1.100000 28.08600
11873 SI 11873 SI SI1 11873 1.100000 28.08600
11874 SI 11874 SI SI1 11874 1.100000 28.08600
11875 SI 11875 SI SI1 11875 1.100000 28.08600
11876 SI 11876 SI SI1 11876 1.100000 28.08600
11877 SI 11877 SI SI1 11877 1.100000 28.08600
11878 SI 11878 SI SI1 11878 1.100000 28.08600
11879 SI 11879 SI SI1 11879 1.100000 28.08600
11880 SI 11880 SI SI1 11880 1.100000 28.08600
11881 SI 11881 SI SI1 11881 1.100000 28.08600
11882 SI 11882 SI SI1 11882 1.100000 28.08600
11883 SI 11883 SI SI1 11883 1.100000 28.08600
11884 SI 11884 SI SI1 11884 1.100000 28.08600
11885 SI 11885 SI SI1 11885 1.100000 28.08600
11886 SI 11886 SI SI1 11886 1.100000 28.08600
11887 SI 11887 SI SI1 11887 1.100000 28.08600
11888 SI 11888 SI SI1 11888 1.100000 28.08600
11889 SI 11889 SI SI1 11889 1.100000 28.08600
11890 SI 11890 SI SI1 11890 1.100000 28.08600
11891 SI 11891 SI SI1 11891 1.100000 28.08600
11892 SI 11892 SI SI1 11892 1.100000 28.08600
11893 SI 11893 SI SI1 11893 1.100000 28.08600
11894 SI 11894 SI SI1 11894 1.100000 28.08600
11895 SI 11895 SI SI1 11895 1.100000 28.08600
11896 SI 11896 SI SI1 11896 1.100000 28.08600
11897 SI 11897 SI SI1 11897 1.100000 28.08600
11898 SI 11898 SI SI1 11898 1.100000 28.08600
11899 SI 11899 SI SI1 11899 1.100000 28.08600
11900 SI 11900 SI SI1 11900 1.100000 28.08600
11901 SI 11901 SI SI1 11901 1.100000 28.08600
11902 SI 11902 SI SI1 11902 1.100000 28.08600
11903 SI 11903 SI SI1 11903 1.100000 28.08600
11904 SI 11904 SI SI1 11904 1.100000 28.08600
11905 SI 11905 SI SI1 11905 1.100000 28.08600
11906 SI 11906 SI SI1 11906 1.100000 28.08600
11907 SI 11907 SI SI1 11907 1.100000 28.08600
11908 SI 11908 SI SI1 11908 1.100000 28.08600
11909 SI 11909 SI SI1 11909 1.100000 28.08600
11910 SI 11910 SI SI1 11910 1.100000 28.08600
11911 SI 11911 SI SI1 11911 1.100000 28.08600
11912 SI 11912 SI SI1 11912 1.100000 28.08600
11913 SI 11913 SI SI1 11913 1.100000 28.08600
11914 SI 11914 SI SI1 11914 1.100000 28.08600
11915 SI 11915 SI SI1 11915 1.100000 28.08600
11916 SI 11916 SI SI1 11916 1.100000 28.08600
11917 SI 11917 SI SI1 11917 1.100000 28.08600
11918 SI 11918 SI SI1 11918 1.100000 28.08600
11919 SI 11919 SI SI1 11919 1.100000 28.08600
11920 SI 11920 SI SI1 11920 1.100000 28.08600
11921 SI 11921 SI SI1 11921 1.100000 28.08600
11922 SI 11922 SI SI1 11922 1.100000 28.08600
11923 SI 11923 SI SI1 11923 1.100000 28.08600
11924 SI 11924 SI SI1 11924 1.100000 28.08600
11925 SI 11925 SI SI1 11925 1.100000 28.08600
11926 SI 11926 SI SI1 11926 1.100000 28.08600
11927 SI 11927 SI SI1 11927 1.100000 28.08600
11928 SI 11928 SI SI1 11928 1.100000 28.08600
11929 SI 11929 SI SI1 11929 1.100000 28.08600
11930 SI 11930 SI SI1 11930 1.100000 28.08600
11931 SI 11931 SI SI1 11931 1.100000 28.08600
11932 SI 11932 SI SI1 11932 1.100000 28.08600
11933 SI 11933 SI SI1 11933 1.100000 28.08600
11934 SI 11934 SI SI1 11934 1.100000 28.08600
11935 SI 11935 SI SI1 11935 1.100000 28.08600
11936 SI 11936 SI SI1 11936 1.100000 28.08600
11937 SI 11937 SI SI1 11937 1.100000 28.08600
11938 SI 11938 SI SI1 11938 1.100000 28.08600
11939 SI 11939 SI SI1 11939 1.100000 28.08600
11940 SI 11940 SI SI1 11940 1.100000 28.08600
11941 SI 11941 SI SI1 11941 1.100000 28.08600
11942 SI 11942 SI SI1 11942 1.100000 28.08600
11943 SI 11943 SI SI1 11943 1.100000 28.08600
11944 SI 11944 SI SI1 11944 1.100000 28.08600
11945 SI 11945 SI SI1 11945 1.100000 28.08600
11946 SI 11946 SI SI1 11946 1.100000 28.08600
11947 SI 11947 SI SI1 11947 1.100000 28.08600
11948 SI 11948 SI SI1 11948 1.100000 28.08600
11949 SI 11949 SI SI1 11949 1.100000 28.08600
11950 SI 11950 SI SI1 11950 1.100000 28.08600
11951 SI 11951 SI SI1 11951 1.100000 28.08600
11952 SI 11952 SI SI1 11952 1.100000 28.08600
11953 SI 11953 SI SI1 11953 1.100000 28.08600
11954 SI 11954 SI SI1 11954 1.100000 28.08600
11955 SI 11955 SI SI1 11955 1.100000 28.08600
11956 SI 11956 SI SI1 11956 1.100000 28.08600
11957 SI 11957 SI SI1 11957 1.100000 28.08600
11958 SI 11958 SI SI1 11958 1.100000 28.08600
11959 SI 11959 SI SI1 11959 1.100000 28.08600
11960 SI 11960 SI SI1 11960 1.100000 28.08600
11961 SI 11961 SI SI1 11961 1.100000 28.08600
11962 SI 11962 SI SI1 11962 1.100000 28.08600
11963 SI 11963 SI SI1 11963 1.100000 28.08600
11964 SI 11964 SI SI1 11964 1.100000 28.08600
11965 SI 11965 SI SI1 11965 1.100000 28.08600
11966 SI 11966 SI SI1 11966 1.100000 28.08600
11967 SI 11967 SI SI1 11967 1.100000 28.08600
11968 SI 11968 SI SI1 11968 1.100000 28.08600
11969 SI 11969 SI SI1 11969 1.100000 28.08600
11970 SI 11970 SI SI1 11970 1.100000 28.08600
11971 SI 11971 SI SI1 11971 1.100000 28.08600
11972 SI 11972 SI SI1 11972 1.100000 28.08600
11973 SI 11973 SI SI1 11973 1.100000 28.08600
11974 SI 11974 SI SI1 11974 1.100000 28.08600
11975 SI 11975 SI SI1 11975 1.100000 28.08600
11976 SI 11976 SI SI1 11976 1.100000 28.08600
11977 SI 11977 SI SI1 11977 1.100000 28.08600
11978 SI 11978 SI SI1 11978 1.100000 28.08600
11979 SI 11979 SI SI1 11979 1.100000 28.08600
11980 SI 11980 SI SI1 11980 1.100000 28.08600
11981 SI 11981 SI SI1 11981 1.100000 28.08600
11982 SI 11982 SI SI1 11982 1.100000 28.08600
11983 SI 11983 SI SI1 11983 1.100000 28.08600
11984 SI 11984 SI SI1 11984 1.100000 28.08600
11985 SI 11985 SI SI1 11985 1.100000 28.08600
11986 SI 11986 SI SI1 11986 1.100000 28.08600
11987 SI 11987 SI SI1 11987 1.100000 28.08600
11988 SI 11988 SI SI1 11988 1.100000 28.08600
11989 SI 11989 SI SI1 11989 1.100000 28.08600
11990 SI 11990 SI SI1 11990 1.100000 28.08600
11991 SI 11991 SI SI1 11991 1.100000 28.08600
11992 SI 11992 SI SI1 11992 1.100000 28.08600
11993 SI 11993 SI SI1 11993 1.100000 28.08600
11994 SI 11994 SI SI1 11994 1.100000 28.08600
11995 SI 11995 SI SI1 11995 1.100000 28.08600
11996 SI 11996 SI SI1 11996 1.100000 28.08600
11997 SI 11997 SI SI1 11997 1.100000 28.08600
11998 SI 11998 SI SI1 11998 1.100000 28.08600
11999 SI 11999 SI SI1 11999 1.100000 28.08600
12000 SI 12000 SI SI1 12000 1.100000 28.08600
12001 SI 12001 SI SI1 12001 1.100000 28.08600
12002 SI 12002 SI SI1 12002 1.100000 28.08600
12003 SI 12003 SI SI1 12003 1.100000 28.08600
12004 SI 12004 SI SI1 12004 1.100000 28.08600
12005 SI 12005 SI SI1 12005 1.100000 28.08600
12006 SI 12006 SI SI1 12006 1.100000 28.08600
12007 SI 12007 SI SI1 12007 1.100000 28.08600
12008 SI 12008 SI SI1 12008 1.100000 28.08600
12009 SI 12009 SI SI1 12009 1.100000 28.08600
12010 SI 12010 SI SI1 12010 1.100000 28.08600
12011 SI 12011 SI SI1 12011 1.100000 28.08600
12012 SI 12012 SI SI1 12012 1.100000 28.08600
12013 SI 12013 SI SI1 12013 1.100000 28.08600
12014 SI 12014 SI SI1 12014 1.100000 28.08600
12015 SI 12015 SI SI1 12015 1.100000 28.08600
12016 SI 12016 SI SI1 12016 1.100000 28.08600
12017 SI 12017 SI SI1 12017 1.100000 28.08600
12018 SI 12018 SI SI1 12018 1.100000 28.08600
12019 SI 12019 SI SI1 12019 1.100000 28.08600
12020 SI 12020 SI SI1 12020 1.100000 28.08600
12021 SI 12021 SI SI1 12021 1.100000 28.08600
12022 SI 12022 SI SI1 12022 1.100000 28.08600
12023 SI 12023 SI SI1 12023 1.100000 28.08600
12024 SI 12024 SI SI1 12024 1.100000 28.08600
12025 SI 12025 SI SI1 12025 1.100000 28.08600
12026 SI 12026 SI SI1 12026 1.100000 28.08600
12027 SI 12027 SI SI1 12027 1.100000 28.08600
12028 SI 12028 SI SI1 12028 1.100000 28.08600
12029 SI 12029 SI SI1 12029 1.100000 28.08600
12030 SI 12030 SI SI1 12030 1.100000 28.08600
12031 SI 12031 SI SI1 12031 1.100000 28.08600
12032 SI 12032 SI SI1 12032 1.100000 28.08600
12033 SI 12033 SI SI1 12033 1.100000 28.08600
12034 SI 12034 SI SI1 12034 1.100000 28.08600
12035 SI 12035 SI SI1 12035 1.100000 28.08600
12036 SI 12036 SI SI1 12036 1.100000 28.08600
12037 SI 12037 SI SI1 12037 1.100000 28.08600
12038 SI 12038 SI SI1 12038 1.100000 28.08600
12039 SI 12039 SI SI1 12039 1.100000 28.08600
12040 SI 12040 SI SI1 12040 1.100000 28.08600
12041 SI 12041 SI SI1 12041 1.100000 28.08600
12042 SI 12042 SI SI1 12042 1.100000 28.08600
12043 SI 12043 SI SI1 12043 1.100000 28.08600
12044 SI 12044 SI SI1 12044 1.100000 28.08600
12045 SI 12045 SI SI1 12045 1.100000 28.08600
12046 SI 12046 SI SI1 12046 1.100000 28.08600
12047 SI 12047 SI SI1 12047 1.100000 28.08600
12048 SI 12048 SI SI1 12048 1.100000 28.08600
12049 SI 12049 SI SI1 12049 1.100000 28.08600
12050 SI 12050 SI SI1 12050 1.100000 28.08600
12051 SI 12051 SI SI1 12051 1.100000 28.08600
12052 SI 12052 SI SI1 12052 1.100000 28.08600
12053 SI 12053 SI SI1 12053 1.100000 28.08600
12054 SI 12054 SI SI1 12054 1.100000 28.08600
12055 SI 12055 SI SI1 12055 1.100000 28.08600
12056 SI 12056 SI SI1 12056 1.100000 28.08600
12057 SI 12057 SI SI1 12057 1.100000 28.08600
12058 SI 12058 SI SI1 12058 1.100000 28.08600
12059 SI 12059 SI SI1 12059 1.100000 28.08600
12060 SI 12060 SI SI1 12060 1.100000 28.08600
12061 SI 12061 SI SI1 12061 1.100000 28.08600
12062 SI 12062 SI SI1 12062 1.100000 28.08600
12063 SI 12063 SI SI1 12063 1.100000 28.08600
12064 SI 12064 SI SI1 12064 1.100000 28.08600
12065 SI 12065 SI SI1 12065 1.100000 28.08600
12066 SI 12066 SI SI1 12066 1.100000 28.08600
12067 SI 12067 SI SI1 12067 1.100000 28.08600
12068 SI 12068 SI SI1 12068 1.100000 28.08600
12069 SI 12069 SI SI1 12069 1.100000 28.08600
12070 SI 12070 SI SI1 12070 1.100000 28.08600
12071 SI 12071 SI SI1 12071 1.100000 28.08600
12072 SI 12072 SI SI1 12072 1.100000 28.08600
12073 SI 12073 SI SI1 12073 1.100000 28.08600
12074 SI 12074 SI SI1 12074 1.100000 28.08600
12075 SI 12075 SI SI1 12075 1.100000 28.08600
12076 SI 12076 SI SI1 12076 1.100000 28.08600
12077 SI 12077 SI SI1 12077 1.100000 28.08600
12078 SI 12078 SI SI1 12078 1.100000 28.08600
12079 SI 12079 SI SI1 12079 1.100000 28.08600
12080 SI 12080 SI SI1 12080 1.100000 28.08600
12081 SI 12081 SI SI1 12081 1.100000 28.08600
12082 SI 12082 SI SI1 12082 1.100000 28.08600
12083 SI 12083 SI SI1 12083 1.100000 28.08600
12084 SI 12084 SI SI1 12084 1.100000 28.08600
12085 SI 12085 SI SI1 12085 1.100000 28.08600
12086 SI 12086 SI SI1 12086 1.100000 28.08600
12087 SI 12087 SI SI1 12087 1.100000 28.08600
12088 SI 12088 SI SI1 12088 1.100000 28.08600
12089 SI 12089 SI SI1 12089 1.100000 28.08600
12090 SI 12090 SI SI1 12090 1.100000 28.08600
12091 SI 12091 SI SI1 12091 1.100000 28.08600
12092 SI 12092 SI SI1 12092 1.100000 28.08600
12093 SI 12093 SI SI1 12093 1.100000 28.08600
12094 SI 12094 SI SI1 12094 1.100000 28.08600
12095 SI 12095 SI SI1 12095 1.100000 28.08600
12096 SI 12096 SI SI1 12096 1.100000 28.08600
12097 SI 12097 SI SI1 12097 1.100000 28.08600
12098 SI 12098 SI SI1 12098 1.100000 28.08600
12099 SI 12099 SI SI1 12099 1.100000 28.08600
12100 SI 12100 SI SI1 12100 1.100000 28.08600
12101 SI 12101 SI SI1 12101 1.100000 28.08600
12102 SI 12102 SI SI1 12102 1.100000 28.08600
12103 SI 12103 SI SI1 12103 1.100000 28.08600
12104 SI 12104 SI SI1 12104 1.100000 28.08600
12105 SI 12105 SI SI1 12105 1.100000 28.08600
12106 SI 12106 SI SI1 12106 1.100000 28.08600
12107 SI 12107 SI SI1 12107 1.100000 28.08600
12108 SI 12108 SI SI1 12108 1.100000 28.08600
12109 SI 12109 SI SI1 12109 1.100000 28.08600
12110 SI 12110 SI SI1 12110 1.100000 28.08600
12111 SI 12111 SI SI1 12111 1.100000 28.08600
12112 SI 12112 SI SI1 12112 1.100000 28.08600
12113 SI 12113 SI SI1 12113 1.100000 28.08600
12114 SI 12114 SI SI1 12114 1.100000 28.08600
12115 SI 12115 SI SI1 12115 1.100000 28.08600
12116 SI 12116 SI SI1 12116 1.100000 28.08600
12117 SI 12117 SI SI1 12117 1.100000 28.08600
12118 SI 12118 SI SI1 12118 1.100000 28.08600
12119 SI 12119 SI SI1 12119 1.100000 28.08600
12120 SI 12120 SI SI1 12120 1.100000 28.08600
12121 SI 12121 SI SI1 12121 1.100000 28.08600
12122 SI 12122 SI SI1 12122 1.100000 28.08600
12123 SI 12123 SI SI1 12123 1.100000 28.08600
12124 SI 12124 SI SI1 12124 1.100000 28.08600
12125 SI 12125 SI SI1 12125 1.100000 28.08600
12126 SI 12126 SI SI1 12126 1.100000 28.08600
12127 SI 12127 SI SI1 12127 1.100000 28.08600
12128 SI 12128 SI SI1 12128 1.100000 28.08600
12129 SI 12129 SI SI1 12129 1.100000 28.08600
12130 SI 12130 SI SI1 12130 1.100000 28.08600
12131 SI 12131 SI SI1 12131 1.100000 28.08600
12132 SI 12132 SI SI1 12132 1.100000 28.08600
12133 SI 12133 SI SI1 12133 1.100000 28.08600
12134 SI 12134 SI SI1 12134 1.100000 28.08600
12135 SI 12135 SI SI1 12135 1.100000 28.08600
12136 SI 12136 SI SI1 12136 1.100000 28.08600
12137 SI 12137 SI SI1 12137 1.100000 28.08600
12138 SI 12138 SI SI1 12138 1.100000 28.08600
12139 SI 12139 SI SI1 12139 1.100000 28.08600
12140 SI 12140 SI SI1 12140 1.100000 28.08600
12141 SI 12141 SI SI1 12141 1.100000 28.08600
12142 SI 12142 SI SI1 12142 1.100000 28.08600
12143 SI 12143 SI SI1 12143 1.100000 28.08600
12144 SI 12144 SI SI1 12144 1.100000 28.08600
12145 SI 12145 SI SI1 12145 1.100000 28.08600
12146 SI 12146 SI SI1 12146 1.100000 28.08600
12147 SI 12147 SI SI1 12147 1.100000 28.08600
12148 SI 12148 SI SI1 12148 1.100000 28.08600
12149 SI 12149 SI SI1 12149 1.100000 28.08600
12150 SI 12150 SI SI1 12150 1.100000 28.08600
12151 SI 12151 SI SI1 12151 1.100000 28.08600
12152 SI 12152 SI SI1 12152 1.100000 28.08600
12153 SI 12153 SI SI1 12153 1.100000 28.08600
12154 SI 12154 SI SI1 12154 1.100000 28.08600
12155 SI 12155 SI SI1 12155 1.100000 28.08600
12156 SI 12156 SI SI1 12156 1.100000 28.08600
12157 SI 12157 SI SI1 12157 1.100000 28.08600
12158 SI 12158 SI SI1 12158 1.100000 28.08600
12159 SI 12159 SI SI1 12159 1.100000 28.08600
12160 SI 12160 SI SI1 12160 1.100000 28.08600
12161 SI 12161 SI SI1 12161 1.100000 28.08600
12162 SI 12162 SI SI1 12162 1.100000 28.08600
12163 SI 12163 SI SI1 12163 1.100000 28.08600
12164 SI 12164 SI SI1 12164 1.100000 28.08600
12165 SI 12165 SI SI1 12165 1.100000 28.08600
12166 SI 12166 SI SI1 12166 1.100000 28.08600
12167 SI 12167 SI SI1 12167 1.100000 28.08600
12168 SI 12168 SI SI1 12168 1.100000 28.08600
12169 SI 12169 SI SI1 12169 1.100000 28.08600
12170 SI 12170 SI SI1 12170 1.100000 28.08600
12171 SI 12171 SI SI1 12171 1.100000 28.08600
12172 SI 12172 SI SI1 12172 1.100000 28.08600
12173 SI 12173 SI SI1 12173 1.100000 28.08600
12174 SI 12174 SI SI1 12174 1.100000 28.08600
12175 SI 12175 SI SI1 12175 1.100000 28.08600
12176 SI 12176 SI SI1 12176 1.100000 28.08600
12177 SI 12177 SI SI1 12177 1.100000 28.08600
12178 SI 12178 SI SI1 12178 1.100000 28.08600
12179 SI 12179 SI SI1 12179 1.100000 28.08600
12180 SI 12180 SI SI1 12180 1.100000 28.08600
12181 SI 12181 SI SI1 12181 1.100000 28.08600
12182 SI 12182 SI SI1 12182 1.100000 28.08600
12183 SI 12183 SI SI1 12183 1.100000 28.08600
12184 SI 12184 SI SI1 12184 1.100000 28.08600
12185 SI 12185 SI SI1 12185 1.100000 28.08600
12186 SI 12186 SI SI1 12186 1.100000 28.08600
12187 SI 12187 SI SI1 12187 1.100000 28.08600
12188 SI 12188 SI SI1 12188 1.100000 28.08600
12189 SI 12189 SI SI1 12189 1.100000 28.08600
12190 SI 12190 SI SI1 12190 1.100000 28.08600
12191 SI 12191 SI SI1 12191 1.100000 28.08600
12192 SI 12192 SI SI1 12192 1.100000 28.08600
12193 SI 12193 SI SI1 12193 1.100000 28.08600
12194 SI 12194 SI SI1 12194 1.100000 28.08600
12195 SI 12195 SI SI1 12195 1.100000 28.08600
12196 SI 12196 SI SI1 12196 1.100000 28.08600
12197 SI 12197 SI SI1 12197 1.100000 28.08600
12198 SI 12198 SI SI1 12198 1.100000 28.08600
12199 SI 12199 SI SI1 12199 1.100000 28.08600
12200 SI 12200 SI SI1 12200 1.100000 28.08600
12201 SI 12201 SI SI1 12201 1.100000 28.08600
12202 SI 12202 SI SI1 12202 1.100000 28.08600
12203 SI 12203 SI SI1 12203 1.100000 28.08600
12204 SI 12204 SI SI1 12204 1.100000 28.08600
12205 SI 12205 SI SI1 12205 1.100000 28.08600
12206 SI 12206 SI SI1 12206 1.100000 28.08600
12207 SI 12207 SI SI1 12207 1.100000 28.08600
12208 SI 12208 SI SI1 12208 1.100000 28.08600
12209 SI 12209 SI SI1 12209 1.100000 28.08600
12210 SI 12210 SI SI1 12210 1.100000 28.08600
12211 SI 12211 SI SI1 12211 1.100000 28.08600
12212 SI 12212 SI SI1 12212 1.100000 28.08600
12213 SI 12213 SI SI1 12213 1.100000 28.08600
12214 SI 12214 SI SI1 12214 1.100000 28.08600
12215 SI 12215 SI SI1 12215 1.100000 28.08600
12216 SI 12216 SI SI1 12216 1.100000 28.08600
12217 SI 12217 SI SI1 12217 1.100000 28.08600
12218 SI 12218 SI SI1 12218 1.100000 28.08600
12219 SI 12219 SI SI1 12219 1.100000 28.08600
12220 SI 12220 SI SI1 12220 1.100000 28.08600
12221 SI 12221 SI SI1 12221 1.100000 28.08600
12222 SI 12222 SI SI1 12222 1.100000 28.08600
12223 SI 12223 SI SI1 12223 1.100000 28.08600
12224 SI 12224 SI SI1 12224 1.100000 28.08600
12225 SI 12225 SI SI1 12225 1.100000 28.08600
12226 SI 12226 SI SI1 12226 1.100000 28.08600
12227 SI 12227 SI SI1 12227 1.100000 28.08600
12228 SI 12228 SI SI1 12228 1.100000 28.08600
12229 SI 12229 SI SI1 12229 1.100000 28.08600
12230 SI 12230 SI SI1 12230 1.100000 28.08600
12231 SI 12231 SI SI1 12231 1.100000 28.08600
12232 SI 12232 SI SI1 12232 1.100000 28.08600
12233 SI 12233 SI SI1 12233 1.100000 28.08600
12234 SI 12234 SI SI1 12234 1.100000 28.08600
12235 SI 12235 SI SI1 12235 1.100000 28.08600
12236 SI 12236 SI SI1 12236 1.100000 28.08600
12237 SI 12237 SI SI1 12237 1.100000 28.08600
12238 SI 12238 SI SI1 12238 1.100000 28.08600
12239 SI 12239 SI SI1 12239 1.100000 28.08600
12240 SI 12240 SI SI1 12240 1.100000 28.08600
12241 SI 12241 SI SI1 12241 1.100000 28.08600
12242 SI 12242 SI SI1 12242 1.100000 28.08600
12243 SI 12243 SI SI1 12243 1.100000 28.08600
12244 SI 12244 SI SI1 12244 1.100000 28.08600
12245 SI 12245 SI SI1 12245 1.100000 28.08600
12246 SI 12246 SI SI1 12246 1.100000 28.08600
12247 SI 12247 SI SI1 12247 1.100000 28.08600
12248 SI 12248 SI SI1 12248 1.100000 28.08600
12249 SI 12249 SI SI1 12249 1.100000 28.08600
12250 SI 12250 SI SI1 12250 1.100000 28.08600
12251 SI 12251 SI SI1 12251 1.100000 28.08600
12252 SI 12252 SI SI1 12252 1.100000 28.08600
12253 SI 12253 SI SI1 12253 1.100000 28.08600
12254 SI 12254 SI SI1 12254 1.100000 28.08600
12255 SI 12255 SI SI1 12255 1.100000 28.08600
12256 SI 12256 SI SI1 12256 1.100000 28.08600
12257 SI 12257 SI SI1 12257 1.100000 28.08600
12258 SI 12258 SI SI1 12258 1.100000 28.08600
12259 SI 12259 SI SI1 12259 1.100000 28.08600
12260 SI 12260 SI SI1 12260 1.100000 28.08600
12261 SI 12261 SI SI1 12261 1.100000 28.08600
12262 SI 12262 SI SI1 12262 1.100000 28.08600
12263 SI 12263 SI SI1 12263 1.100000 28.08600
12264 SI 12264 SI SI1 12264 1.100000 28.08600
12265 SI 12265 SI SI1 12265 1.100000 28.08600
12266 SI 12266 SI SI1 12266 1.100000 28.08600
12267 SI 12267 SI SI1 12267 1.100000 28.08600
12268 SI 12268 SI SI1 12268 1.100000 28.08600
12269 SI 12269 SI SI1 12269 1.100000 28.08600
12270 SI 12270 SI SI1 12270 1.100000 28.08600
12271 SI 12271 SI SI1 12271 1.100000 28.08600
12272 SI 12272 SI SI1 12272 1.100000 28.08600
12273 SI 12273 SI SI1 12273 1.100000 28.08600
12274 SI 12274 SI SI1 12274 1.100000 28.08600
12275 SI 12275 SI SI1 12275 1.100000 28.08600
12276 SI 12276 SI SI1 12276 1.100000 28.08600
12277 SI 12277 SI SI1 12277 1.100000 28.08600
12278 SI 12278 SI SI1 12278 1.100000 28.08600
12279 SI 12279 SI SI1 12279 1.100000 28.08600
12280 SI 12280 SI SI1 12280 1.100000 28.08600
12281 SI 12281 SI SI1 12281 1.100000 28.08600
12282 SI 12282 SI SI1 12282 1.100000 28.08600
12283 SI 12283 SI SI1 12283 1.100000 28.08600
12284 SI 12284 SI SI1 12284 1.100000 28.08600
12285 SI 12285 SI SI1 12285 1.100000 28.08600
12286 SI 12286 SI SI1 12286 1.100000 28.08600
12287 SI 12287 SI SI1 12287 1.100000 28.08600
12288 SI 12288 SI SI1 12288 1.100000 28.08600
12289 SI 12289 SI SI1 12289 1.100000 28.08600
12290 SI 12290 SI SI1 12290 1.100000 28.08600
12291 SI 12291 SI SI1 12291 1.100000 28.08600
12292 SI 12292 SI SI1 12292 1.100000 28.08600
12293 SI 12293 SI SI1 12293 1.100000 28.08600
12294 SI 12294 SI SI1 12294 1.100000 28.08600
12295 SI 12295 SI SI1 12295 1.100000 28.08600
12296 SI 12296 SI SI1 12296 1.100000 28.08600
12297 SI 12297 SI SI1 12297 1.100000 28.08600
12298 SI 12298 SI SI1 12298 1.100000 28.08600
12299 SI 12299 SI SI1 12299 1.100000 28.08600
12300 SI 12300 SI SI1 12300 1.100000 28.08600
12301 SI 12301 SI SI1 12301 1.100000 28.08600
12302 SI 12302 SI SI1 12302 1.100000 28.08600
12303 SI 12303 SI SI1 12303 1.100000 28.08600
12304 SI 12304 SI SI1 12304 1.100000 28.08600
12305 SI 12305 SI SI1 12305 1.100000 28.08600
12306 SI 12306 SI SI1 12306 1.100000 28.08600
12307 SI 12307 SI SI1 12307 1.100000 28.08600
12308 SI 12308 SI SI1 12308 1.100000 28.08600
12309 SI 12309 SI SI1 12309 1.100000 28.08600
12310 SI 12310 SI SI1 12310 1.100000 28.08600
12311 SI 12311 SI SI1 12311 1.100000 28.08600
12312 SI 12312 SI SI1 12312 1.100000 28.08600
12313 SI 12313 SI SI1 12313 1.100000 28.08600
12314 SI 12314 SI SI1 12314 1.100000 28.08600
12315 SI 12315 SI SI1 12315 1.100000 28.08600
12316 SI 12316 SI SI1 12316 1.100000 28.08600
12317 SI 12317 SI SI1 12317 1.100000 28.08600
12318 SI 12318 SI SI1 12318 1.100000 28.08600
12319 SI 12319 SI SI1 12319 1.100000 28.08600
12320 SI 12320 SI SI1 12320 1.100000 28.08600
12321 SI 12321 SI SI1 12321 1.100000 28.08600
12322 SI 12322 SI SI1 12322 1.100000 28.08600
12323 SI 12323 SI SI1 12323 1.100000 28.08600
12324 SI 12324 SI SI1 12324 1.100000 28.08600
12325 SI 12325 SI SI1 12325 1.100000 28.08600
12326 SI 12326 SI SI1 12326 1.100000 28.08600
12327 SI 12327 SI SI1 12327 1.100000 28.08600
12328 SI 12328 SI SI1 12328 1.100000 28.08600
12329 SI 12329 SI SI1 12329 1.100000 28.08600
12330 SI 12330 SI SI1 12330 1.100000 28.08600
12331 SI 12331 SI SI1 12331 1.100000 28.08600
12332 SI 12332 SI SI1 12332 1.100000 28.08600
12333 SI 12333 SI SI1 12333 1.100000 28.08600
12334 SI 12334 SI SI1 12334 1.100000 28.08600
12335 SI 12335 SI SI1 12335 1.100000 28.08600
12336 SI 12336 SI SI1 12336 1.100000 28.08600
12337 SI 12337 SI SI1 12337 1.100000 28.08600
12338 SI 12338 SI SI1 12338 1.100000 28.08600
12339 SI 12339 SI SI1 12339 1.100000 28.08600
12340 SI 12340 SI SI1 12340 1.100000 28.08600
12341 SI 12341 SI SI1 12341 1.100000 28.08600
12342 SI 12342 SI SI1 12342 1.100000 28.08600
12343 SI 12343 SI SI1 12343 1.100000 28.08600
12344 SI 12344 SI SI1 12344 1.100000 28.08600
12345 SI 12345 SI SI1 12345 1.100000 28.08600
12346 SI 12346 SI SI1 12346 1.100000 28.08600
12347 SI 12347 SI SI1 12347 1.100000 28.08600
12348 SI 12348 SI SI1 12348 1.100000 28.08600
12349 SI 12349 SI SI1 12349 1.100000 28.08600
12350 SI 12350 SI SI1 12350 1.100000 28.08600
12351 SI 12351 SI SI1 12351 1.100000 28.08600
12352 SI 12352 SI SI1 12352 1.100000 28.08600
12353 SI 12353 SI SI1 12353 1.100000 28.08600
12354 SI 12354 SI SI1 12354 1.100000 28.08600
12355 SI 12355 SI SI1 12355 1.100000 28.08600
12356 SI 12356 SI SI1 12356 1.100000 28.08600
12357 SI 12357 SI SI1 12357 1.100000 28.08600
12358 SI 12358 SI SI1 12358 1.100000 28.08600
12359 SI 12359 SI SI1 12359 1.100000 28.08600
12360 SI 12360 SI SI1 12360 1.100000 28.08600
12361 SI 12361 SI SI1 12361 1.100000 28.08600
12362 SI 12362 SI SI1 12362 1.100000 28.08600
12363 SI 12363 SI SI1 12363 1.100000 28.08600
12364 SI 12364 SI SI1 12364 1.100000 28.08600
12365 SI 12365 SI SI1 12365 1.100000 28.08600
12366 SI 12366 SI SI1 12366 1.100000 28.08600
12367 SI 12367 SI SI1 12367 1.100000 28.08600
12368 SI 12368 SI SI1 12368 1.100000 28.08600
12369 SI 12369 SI SI1 12369 1.100000 28.08600
12370 SI 12370 SI SI1 12370 1.100000 28.08600
12371 SI 12371 SI SI1 12371 1.100000 28.08600
12372 SI 12372 SI SI1 12372 1.100000 28.08600
12373 SI 12373 SI SI1 12373 1.100000 28.08600
12374 SI 12374 SI SI1 12374 1.100000 28.08600
12375 SI 12375 SI SI1 12375 1.100000 28.08600
12376 SI 12376 SI SI1 12376 1.100000 28.08600
12377 SI 12377 SI SI1 12377 1.100000 28.08600
12378 SI 12378 SI SI1 12378 1.100000 28.08600
12379 SI 12379 SI SI1 12379 1.100000 28.08600
12380 SI 12380 SI SI1 12380 1.100000 28.08600
12381 SI 12381 SI SI1 12381 1.100000 28.08600
12382 SI 12382 SI SI1 12382 1.100000 28.08600
12383 SI 12383 SI SI1 12383 1.100000 28.08600
12384 SI 12384 SI SI1 12384 1.100000 28.08600
12385 SI 12385 SI SI1 12385 1.100000 28.08600
12386 SI 12386 SI SI1 12386 1.100000 28.08600
12387 SI 12387 SI SI1 12387 1.100000 28.08600
12388 SI 12388 SI SI1 12388 1.100000 28.08600
12389 SI 12389 SI SI1 12389 1.100000 28.08600
12390 SI 12390 SI SI1 12390 1.100000 28.08600
12391 SI 12391 SI SI1 12391 1.100000 28.08600
12392 SI 12392 SI SI1 12392 1.100000 28.08600
12393 SI 12393 SI SI1 12393 1.100000 28.08600
12394 SI 12394 SI SI1 12394 1.100000 28.08600
12395 SI 12395 SI SI1 12395 1.100000 28.08600
12396 SI 12396 SI SI1 12396 1.100000 28.08600
12397 SI 12397 SI SI1 12397 1.100000 28.08600
12398 SI 12398 SI SI1 12398 1.100000 28.08600
12399 SI 12399 SI SI1 12399 1.100000 28.08600
12400 SI 12400 SI SI1 12400 1.100000 28.08600
12401 SI 12401 SI SI1 12401 1.100000 28.08600
12402 SI 12402 SI SI1 12402 1.100000 28.08600
12403 SI 12403 SI SI1 12403 1.100000 28.08600
12404 SI 12404 SI SI1 12404 1.100000 28.08600
12405 SI 12405 SI SI1 12405 1.100000 28.08600
12406 SI 12406 SI SI1 12406 1.100000 28.08600
12407 SI 12407 SI SI1 12407 1.100000 28.08600
12408 SI 12408 SI SI1 12408 1.100000 28.08600
12409 SI 12409 SI SI1 12409 1.100000 28.08600
12410 SI 12410 SI SI1 12410 1.100000 28.08600
12411 SI 12411 SI SI1 12411 1.100000 28.08600
12412 SI 12412 SI SI1 12412 1.100000 28.08600
12413 SI 12413 SI SI1 12413 1.100000 28.08600
12414 SI 12414 SI SI1 12414 1.100000 28.08600
12415 SI 12415 SI SI1 12415 1.100000 28.08600
12416 SI 12416 SI SI1 12416 1.100000 28.08600
12417 SI 12417 SI SI1 12417 1.100000 28.08600
12418 SI 12418 SI SI1 12418 1.100000 28.08600
12419 SI 12419 SI SI1 12419 1.100000 28.08600
12420 SI 12420 SI SI1 12420 1.100000 28.08600
12421 SI 12421 SI SI1 12421 1.100000 28.08600
12422 SI 12422 SI SI1 12422 1.100000 28.08600
12423 SI 12423 SI SI1 12423 1.100000 28.08600
12424 SI 12424 SI SI1 12424 1.100000 28.08600
12425 SI 12425 SI SI1 12425 1.100000 28.08600
12426 SI 12426 SI SI1 12426 1.100000 28.08600
12427 SI 12427 SI SI1 12427 1.100000 28.08600
12428 SI 12428 SI SI1 12428 1.100000 28.08600
12429 SI 12429 SI SI1 12429 1.100000 28.08600
12430 SI 12430 SI SI1 12430 1.100000 28.08600
12431 SI 12431 SI SI1 12431 1.100000 28.08600
12432 SI 12432 SI SI1 12432 1.100000 28.08600
12433 SI 12433 SI SI1 12433 1.100000 28.08600
12434 SI 12434 SI SI1 12434 1.100000 28.08600
12435 SI 12435 SI SI1 12435 1.100000 28.08600
12436 SI 12436 SI SI1 12436 1.100000 28.08600
12437 SI 12437 SI SI1 12437 1.100000 28.08600
12438 SI 12438 SI SI1 12438 1.100000 28.08600
12439 SI 12439 SI SI1 12439 1.100000 28.08600
12440 SI 12440 SI SI1 12440 1.100000 28.08600
12441 SI 12441 SI SI1 12441 1.100000 28.08600
12442 SI 12442 SI SI1 12442 1.100000 28.08600
12443 SI 12443 SI SI1 12443 1.100000 28.08600
12444 SI 12444 SI SI1 12444 1.100000 28.08600
12445 SI 12445 SI SI1 12445 1.100000 28.08600
12446 SI 12446 SI SI1 12446 1.100000 28.08600
12447 SI 12447 SI SI1 12447 1.100000 28.08600
12448 SI 12448 SI SI1 12448 1.100000 28.08600
12449 SI 12449 SI SI1 12449 1.100000 28.08600
12450 SI 12450 SI SI1 12450 1.100000 28.08600
12451 SI 12451 SI SI1 12451 1.100000 28.08600
12452 SI 12452 SI SI1 12452 1.100000 28.08600
12453 SI 12453 SI SI1 12453 1.100000 28.08600
12454 SI 12454 SI SI1 12454 1.100000 28.08600
12455 SI 12455 SI SI1 12455 1.100000 28.08600
12456 SI 12456 SI SI1 12456 1.100000 28.08600
12457 SI 12457 SI SI1 12457 1.100000 28.08600
12458 SI 12458 SI SI1 12458 1.100000 28.08600
12459 SI 12459 SI SI1 12459 1.100000 28.08600
12460 SI 12460 SI SI1 12460 1.100000 28.08600
12461 SI 12461 SI SI1 12461 1.100000 28.08600
12462 SI 12462 SI SI1 12462 1.100000 28.08600
12463 SI 12463 SI SI1 12463 1.100000 28.08600
12464 SI 12464 SI SI1 12464 1.100000 28.08600
12465 SI 12465 SI SI1 12465 1.100000 28.08600
12466 SI 12466 SI SI1 12466 1.100000 28.08600
12467 SI 12467 SI SI1 12467 1.100000 28.08600
12468 SI 12468 SI SI1 12468 1.100000 28.08600
12469 SI 12469 SI SI1 12469 1.100000 28.08600
12470 SI 12470 SI SI1 12470 1.100000 28.08600
12471 SI 12471 SI SI1 12471 1.100000 28.08600
12472 SI 12472 SI SI1 12472 1.100000 28.08600
12473 SI 12473 SI SI1 12473 1.100000 28.08600
12474 SI 12474 SI SI1 12474 1.100000 28.08600
12475 SI 12475 SI SI1 12475 1.100000 28.08600
12476 SI 12476 SI SI1 12476 1.100000 28.08600
12477 SI 12477 SI SI1 12477 1.100000 28.08600
12478 SI 12478 SI SI1 12478 1.100000 28.08600
12479 SI 12479 SI SI1 12479 1.100000 28.08600
12480 SI 12480 SI SI1 12480 1.100000 28.08600
12481 SI 12481 SI SI1 12481 1.100000 28.08600
12482 SI 12482 SI SI1 12482 1.100000 28.08600
12483 SI 12483 SI SI1 12483 1.100000 28.08600
12484 SI 12484 SI SI1 12484 1.100000 28.08600
12485 SI 12485 SI SI1 12485 1.100000 28.08600
12486 SI 12486 SI SI1 12486 1.100000 28.08600
12487 SI 12487 SI SI1 12487 1.100000 28.08600
12488 SI 12488 SI SI1 12488 1.100000 28.08600
12489 SI 12489 SI SI1 12489 1.100000 28.08600
12490 SI 12490 SI SI1 12490 1.100000 28.08600
12491 SI 12491 SI SI1 12491 1.100000 28.08600
12492 SI 12492 SI SI1 12492 1.100000 28.08600
12493 SI 12493 SI SI1 12493 1.100000 28.08600
12494 SI 12494 SI SI1 12494 1.100000 28.08600
12495 SI 12495 SI SI1 12495 1.100000 28.08600
12496 SI 12496 SI SI1 12496 1.100000 28.08600
12497 SI 12497 SI SI1 12497 1.100000 28.08600
12498 SI 12498 SI SI1 12498 1.100000 28.08600
12499 SI 12499 SI SI1 12499 1.100000 28.08600
12500 SI 12500 SI SI1 12500 1.100000 28.08600
12501 SI 12501 SI SI1 12501 1.100000 28.08600
12502 SI 12502 SI SI1 12502 1.100000 28.08600
12503 SI 12503 SI SI1 12503 1.100000 28.08600
12504 SI 12504 SI SI1 12504 1.100000 28.08600
12505 SI 12505 SI SI1 12505 1.100000 28.08600
12506 SI 12506 SI SI1 12506 1.100000 28.08600
12507 SI 12507 SI SI1 12507 1.100000 28.08600
12508 SI 12508 SI SI1 12508 1.100000 28.08600
12509 SI 12509 SI SI1 12509 1.100000 28.08600
12510 SI 12510 SI SI1 12510 1.100000 28.08600
12511 SI 12511 SI SI1 12511 1.100000 28.08600
12512 SI 12512 SI SI1 12512 1.100000 28.08600
12513 SI 12513 SI SI1 12513 1.100000 28.08600
12514 SI 12514 SI SI1 12514 1.100000 28.08600
12515 SI 12515 SI SI1 12515 1.100000 28.08600
12516 SI 12516 SI SI1 12516 1.100000 28.08600
12517 SI 12517 SI SI1 12517 1.100000 28.08600
12518 SI 12518 SI SI1 12518 1.100000 28.08600
12519 SI 12519 SI SI1 12519 1.100000 28.08600
12520 SI 12520 SI SI1 12520 1.100000 28.08600
12521 SI 12521 SI SI1 12521 1.100000 28.08600
12522 SI 12522 SI SI1 12522 1.100000 28.08600
12523 SI 12523 SI SI1 12523 1.100000 28.08600
12524 SI 12524 SI SI1 12524 1.100000 28.08600
12525 SI 12525 SI SI1 12525 1.100000 28.08600
12526 SI 12526 SI SI1 12526 1.100000 28.08600
12527 SI 12527 SI SI1 12527 1.100000 28.08600
12528 SI 12528 SI SI1 12528 1.100000 28.08600
12529 SI 12529 SI SI1 12529 1.100000 28.08600
12530 SI 12530 SI SI1 12530 1.100000 28.08600
12531 SI 12531 SI SI1 12531 1.100000 28.08600
12532 SI 12532 SI SI1 12532 1.100000 28.08600
12533 SI 12533 SI SI1 12533 1.100000 28.08600
12534 SI 12534 SI SI1 12534 1.100000 28.08600
12535 SI 12535 SI SI1 12535 1.100000 28.08600
12536 SI 12536 SI SI1 12536 1.100000 28.08600
12537 SI 12537 SI SI1 12537 1.100000 28.08600
12538 SI 12538 SI SI1 12538 1.100000 28.08600
12539 SI 12539 SI SI1 12539 1.100000 28.08600
12540 SI 12540 SI SI1 12540 1.100000 28.08600
12541 SI 12541 SI SI1 12541 1.100000 28.08600
12542 SI 12542 SI SI1 12542 1.100000 28.08600
12543 SI 12543 SI SI1 12543 1.100000 28.08600
12544 SI 12544 SI SI1 12544 1.100000 28.08600
12545 SI 12545 SI SI1 12545 1.100000 28.08600
12546 SI 12546 SI SI1 12546 1.100000 28.08600
12547 SI 12547 SI SI1 12547 1.100000 28.08600
12548 SI 12548 SI SI1 12548 1.100000 28.08600
12549 SI 12549 SI SI1 12549 1.100000 28.08600
12550 SI 12550 SI SI1 12550 1.100000 28.08600
12551 SI 12551 SI SI1 12551 1.100000 28.08600
12552 SI 12552 SI SI1 12552 1.100000 28.08600
12553 SI 12553 SI SI1 12553 1.100000 28.08600
12554 SI 12554 SI SI1 12554 1.100000 28.08600
12555 SI 12555 SI SI1 12555 1.100000 28.08600
12556 SI 12556 SI SI1 12556 1.100000 28.08600
12557 SI 12557 SI SI1 12557 1.100000 28.08600
12558 SI 12558 SI SI1 12558 1.100000 28.08600
12559 SI 12559 SI SI1 12559 1.100000 28.08600
12560 SI 12560 SI SI1 12560 1.100000 28.08600
12561 SI 12561 SI SI1 12561 1.100000 28.08600
12562 SI 12562 SI SI1 12562 1.100000 28.08600
12563 SI 12563 SI SI1 12563 1.100000 28.08600
12564 SI 12564 SI SI1 12564 1.100000 28.08600
12565 SI 12565 SI SI1 12565 1.100000 28.08600
12566 SI 12566 SI SI1 12566 1.100000 28.08600
12567 SI 12567 SI SI1 12567 1.100000 28.08600
12568 SI 12568 SI SI1 12568 1.100000 28.08600
12569 SI 12569 SI SI1 12569 1.100000 28.08600
12570 SI 12570 SI SI1 12570 1.100000 28.08600
12571 SI 12571 SI SI1 12571 1.100000 28.08600
12572 SI 12572 SI SI1 12572 1.100000 28.08600
12573 SI 12573 SI SI1 12573 1.100000 28.08600
12574 SI 12574 SI SI1 12574 1.100000 28.08600
12575 SI 12575 SI SI1 12575 1.100000 28.08600
12576 SI 12576 SI SI1 12576 1.100000 28.08600
12577 SI 12577 SI SI1 12577 1.100000 28.08600
12578 SI 12578 SI SI1 12578 1.100000 28.08600
12579 SI 12579 SI SI1 12579 1.100000 28.08600
12580 SI 12580 SI SI1 12580 1.100000 28.08600
12581 SI 12581 SI SI1 12581 1.100000 28.08600
12582 SI 12582 SI SI1 12582 1.100000 28.08600
12583 SI 12583 SI SI1 12583 1.100000 28.08600
12584 SI 12584 SI SI1 12584 1.100000 28.08600
12585 SI 12585 SI SI1 12585 1.100000 28.08600
12586 SI 12586 SI SI1 12586 1.100000 28.08600
12587 SI 12587 SI SI1 12587 1.100000 28.08600
12588 SI 12588 SI SI1 12588 1.100000 28.08600
12589 SI 12589 SI SI1 12589 1.100000 28.08600
12590 SI 12590 SI SI1 12590 1.100000 28.08600
12591 SI 12591 SI SI1 12591 1.100000 28.08600
12592 SI 12592 SI SI1 12592 1.100000 28.08600
12593 SI 12593 SI SI1 12593 1.100000 28.08600
12594 SI 12594 SI SI1 12594 1.100000 28.08600
12595 SI 12595 SI SI1 12595 1.100000 28.08600
12596 SI 12596 SI SI1 12596 1.100000 28.08600
12597 SI 12597 SI SI1 12597 1.100000 28.08600
12598 SI 12598 SI SI1 12598 1.100000 28.08600
12599 SI 12599 SI SI1 12599 1.100000 28.08600
12600 SI 12600 SI SI1 12600 1.100000 28.08600
12601 SI 12601 SI SI1 12601 1.100000 28.08600
12602 SI 12602 SI SI1 12602 1.100000 28.08600
12603 SI 12603 SI SI1 12603 1.100000 28.08600
12604 SI 12604 SI SI1 12604 1.100000 28.08600
12605 SI 12605 SI SI1 12605 1.100000 28.08600
12606 SI 12606 SI SI1 12606 1.100000 28.08600
12607 SI 12607 SI SI1 12607 1.100000 28.08600
12608 SI 12608 SI SI1 12608 1.100000 28.08600
12609 SI 12609 SI SI1 12609 1.100000 28.08600
12610 SI 12610 SI SI1 12610 1.100000 28.08600
12611 SI 12611 SI SI1 12611 1.100000 28.08600
12612 SI 12612 SI SI1 12612 1.100000 28.08600
12613 SI 12613 SI SI1 12613 1.100000 28.08600
12614 SI 12614 SI SI1 12614 1.100000 28.08600
12615 SI 12615 SI SI1 12615 1.100000 28.08600
12616 SI 12616 SI SI1 12616 1.100000 28.08600
12617 SI 12617 SI SI1 12617 1.100000 28.08600
12618 SI 12618 SI SI1 12618 1.100000 28.08600
12619 SI 12619 SI SI1 12619 1.100000 28.08600
12620 SI 12620 SI SI1 12620 1.100000 28.08600
12621 SI 12621 SI SI1 12621 1.100000 28.08600
12622 SI 12622 SI SI1 12622 1.100000 28.08600
12623 SI 12623 SI SI1 12623 1.100000 28.08600
12624 SI 12624 SI SI1 12624 1.100000 28.08600
12625 SI 12625 SI SI1 12625 1.100000 28.08600
12626 SI 12626 SI SI1 12626 1.100000 28.08600
12627 SI 12627 SI SI1 12627 1.100000 28.08600
12628 SI 12628 SI SI1 12628 1.100000 28.08600
12629 SI 12629 SI SI1 12629 1.100000 28.08600
12630 SI 12630 SI SI1 12630 1.100000 28.08600
12631 SI 12631 SI SI1 12631 1.100000 28.08600
12632 SI 12632 SI SI1 12632 1.100000 28.08600
12633 SI 12633 SI SI1 12633 1.100000 28.08600
12634 SI 12634 SI SI1 12634 1.100000 28.08600
12635 SI 12635 SI SI1 12635 1.100000 28.08600
12636 SI 12636 SI SI1 12636 1.100000 28.08600
12637 SI 12637 SI SI1 12637 1.100000 28.08600
12638 SI 12638 SI SI1 12638 1.100000 28.08600
12639 SI 12639 SI SI1 12639 1.100000 28.08600
12640 SI 12640 SI SI1 12640 1.100000 28.08600
12641 SI 12641 SI SI1 12641 1.100000 28.08600
12642 SI 12642 SI SI1 12642 1.100000 28.08600
12643 SI 12643 SI SI1 12643 1.100000 28.08600
12644 SI 12644 SI SI1 12644 1.100000 28.08600
12645 SI 12645 SI SI1 12645 1.100000 28.08600
12646 SI 12646 SI SI1 12646 1.100000 28.08600
12647 SI 12647 SI SI1 12647 1.100000 28.08600
12648 SI 12648 SI SI1 12648 1.100000 28.08600
12649 SI 12649 SI SI1 12649 1.100000 28.08600
12650 SI 12650 SI SI1 12650 1.100000 28.08600
12651 SI 12651 SI SI1 12651 1.100000 28.08600
12652 SI 12652 SI SI1 12652 1.100000 28.08600
12653 SI 12653 SI SI1 12653 1.100000 28.08600
12654 SI 12654 SI SI1 12654 1.100000 28.08600
12655 SI 12655 SI SI1 12655 1.100000 28.08600
12656 SI 12656 SI SI1 12656 1.100000 28.08600
12657 SI 12657 SI SI1 12657 1.100000 28.08600
12658 SI 12658 SI SI1 12658 1.100000 28.08600
12659 SI 12659 SI SI1 12659 1.100000 28.08600
12660 SI 12660 SI SI1 12660 1.100000 28.08600
12661 SI 12661 SI SI1 12661 1.100000 28.08600
12662 SI 12662 SI SI1 12662 1.100000 28.08600
12663 SI 12663 SI SI1 12663 1.100000 28.08600
12664 SI 12664 SI SI1 12664 1.100000 28.08600
12665 SI 12665 SI SI1 12665 1.100000 28.08600
12666 SI 12666 SI SI1 12666 1.100000 28.08600
12667 SI 12667 SI SI1 12667 1.100000 28.08600
12668 SI 12668 SI SI1 12668 1.100000 28.08600
12669 SI 12669 SI SI1 12669 1.100000 28.08600
12670 SI 12670 SI SI1 12670 1.100000 28.08600
12671 SI 12671 SI SI1 12671 1.100000 28.08600
12672 SI 12672 SI SI1 12672 1.100000 28.08600
12673 SI 12673 SI SI1 12673 1.100000 28.08600
12674 SI 12674 SI SI1 12674 1.100000 28.08600
12675 SI 12675 SI SI1 12675 1.100000 28.08600
12676 SI 12676 SI SI1 12676 1.100000 28.08600
12677 SI 12677 SI SI1 12677 1.100000 28.08600
12678 SI 12678 SI SI1 12678 1.100000 28.08600
12679 SI 12679 SI SI1 12679 1.100000 28.08600
12680 SI 12680 SI SI1 12680 1.100000 28.08600
12681 SI 12681 SI SI1 12681 1.100000 28.08600
12682 SI 12682 SI SI1 12682 1.100000 28.08600
12683 SI 12683 SI SI1 12683 1.100000 28.08600
12684 SI 12684 SI SI1 12684 1.100000 28.08600
12685 SI 12685 SI SI1 12685 1.100000 28.08600
12686 SI 12686 SI SI1 12686 1.100000 28.08600
12687 SI 12687 SI SI1 12687 1.100000 28.08600
12688 SI 12688 SI SI1 12688 1.100000 28.08600
12689 SI 12689 SI SI1 12689 1.100000 28.08600
12690 SI 12690 SI SI1 12690 1.100000 28.08600
12691 SI 12691 SI SI1 12691 1.100000 28.08600
12692 SI 12692 SI SI1 12692 1.100000 28.08600
12693 SI 12693 SI SI1 12693 1.100000 28.08600
12694 SI 12694 SI SI1 12694 1.100000 28.08600
12695 SI 12695 SI SI1 12695 1.100000 28.08600
12696 SI 12696 SI SI1 12696 1.100000 28.08600
12697 SI 12697 SI SI1 12697 1.100000 28.08600
12698 SI 12698 SI SI1 12698 1.100000 28.08600
12699 SI 12699 SI SI1 12699 1.100000 28.08600
12700 SI 12700 SI SI1 12700 1.100000 28.08600
12701 SI 12701 SI SI1 12701 1.100000 28.08600
12702 SI 12702 SI SI1 12702 1.100000 28.08600
12703 SI 12703 SI SI1 12703 1.100000 28.08600
12704 SI 12704 SI SI1 12704 1.100000 28.08600
12705 SI 12705 SI SI1 12705 1.100000 28.08600
12706 SI 12706 SI SI1 12706 1.100000 28.08600
12707 SI 12707 SI SI1 12707 1.100000 28.08600
12708 SI 12708 SI SI1 12708 1.100000 28.08600
12709 SI 12709 SI SI1 12709 1.100000 28.08600
12710 SI 12710 SI SI1 12710 1.100000 28.08600
12711 SI 12711 SI SI1 12711 1.100000 28.08600
12712 SI 12712 SI SI1 12712 1.100000 28.08600
12713 SI 12713 SI SI1 12713 1.100000 28.08600
12714 SI 12714 SI SI1 12714 1.100000 28.08600
12715 SI 12715 SI SI1 12715 1.100000 28.08600
12716 SI 12716 SI SI1 12716 1.100000 28.08600
12717 SI 12717 SI SI1 12717 1.100000 28.08600
12718 SI 12718 SI SI1 12718 1.100000 28.08600
12719 SI 12719 SI SI1 12719 1.100000 28.08600
12720 SI 12720 SI SI1 12720 1.100000 28.08600
12721 SI 12721 SI SI1 12721 1.100000 28.08600
12722 SI 12722 SI SI1 12722 1.100000 28.08600
12723 SI 12723 SI SI1 12723 1.100000 28.08600
12724 SI 12724 SI SI1 12724 1.100000 28.08600
12725 SI 12725 SI SI1 12725 1.100000 28.08600
12726 SI 12726 SI SI1 12726 1.100000 28.08600
12727 SI 12727 SI SI1 12727 1.100000 28.08600
12728 SI 12728 SI SI1 12728 1.100000 28.08600
12729 SI 12729 SI SI1 12729 1.100000 28.08600
12730 SI 12730 SI SI1 12730 1.100000 28.08600
12731 SI 12731 SI SI1 12731 1.100000 28.08600
12732 SI 12732 SI SI1 12732 1.100000 28.08600
12733 SI 12733 SI SI1 12733 1.100000 28.08600
12734 SI 12734 SI SI1 12734 1.100000 28.08600
12735 SI 12735 SI SI1 12735 1.100000 28.08600
12736 SI 12736 SI SI1 12736 1.100000 28.08600
12737 SI 12737 SI SI1 12737 1.100000 28.08600
12738 SI 12738 SI SI1 12738 1.100000 28.08600
12739 SI 12739 SI SI1 12739 1.100000 28.08600
12740 SI 12740 SI SI1 12740 1.100000 28.08600
12741 SI 12741 SI SI1 12741 1.100000 28.08600
12742 SI 12742 SI SI1 12742 1.100000 28.08600
12743 SI 12743 SI SI1 12743 1.100000 28.08600
12744 SI 12744 SI SI1 12744 1.100000 28.08600
12745 SI 12745 SI SI1 12745 1.100000 28.08600
12746 SI 12746 SI SI1 12746 1.100000 28.08600
12747 SI 12747 SI SI1 12747 1.100000 28.08600
12748 SI 12748 SI SI1 12748 1.100000 28.08600
12749 SI 12749 SI SI1 12749 1.100000 28.08600
12750 SI 12750 SI SI1 12750 1.100000 28.08600
12751 SI 12751 SI SI1 12751 1.100000 28.08600
12752 SI 12752 SI SI1 12752 1.100000 28.08600
12753 SI 12753 SI SI1 12753 1.100000 28.08600
12754 SI 12754 SI SI1 12754 1.100000 28.08600
12755 SI 12755 SI SI1 12755 1.100000 28.08600
12756 SI 12756 SI SI1 12756 1.100000 28.08600
12757 SI 12757 SI SI1 12757 1.100000 28.08600
12758 SI 12758 SI SI1 12758 1.100000 28.08600
12759 SI 12759 SI SI1 12759 1.100000 28.08600
12760 SI 12760 SI SI1 12760 1.100000 28.08600
12761 SI 12761 SI SI1 12761 1.100000 28.08600
12762 SI 12762 SI SI1 12762 1.100000 28.08600
12763 SI 12763 SI SI1 12763 1.100000 28.08600
12764 SI 12764 SI SI1 12764 1.100000 28.08600
12765 SI 12765 SI SI1 12765 1.100000 28.08600
12766 SI 12766 SI SI1 12766 1.100000 28.08600
12767 SI 12767 SI SI1 12767 1.100000 28.08600
12768 SI 12768 SI SI1 12768 1.100000 28.08600
12769 SI 12769 SI SI1 12769 1.100000 28.08600
12770 SI 12770 SI SI1 12770 1.100000 28.08600
12771 SI 12771 SI SI1 12771 1.100000 28.08600
12772 SI 12772 SI SI1 12772 1.100000 28.08600
12773 SI 12773 SI SI1 12773 1.100000 28.08600
12774 SI 12774 SI SI1 12774 1.100000 28.08600
12775 SI 12775 SI SI1 12775 1.100000 28.08600
12776 SI 12776 SI SI1 12776 1.100000 28.08600
12777 SI 12777 SI SI1 12777 1.100000 28.08600
12778 SI 12778 SI SI1 12778 1.100000 28.08600
12779 SI 12779 SI SI1 12779 1.100000 28.08600
12780 SI 12780 SI SI1 12780 1.100000 28.08600
12781 SI 12781 SI SI1 12781 1.100000 28.08600
12782 SI 12782 SI SI1 12782 1.100000 28.08600
12783 SI 12783 SI SI1 12783 1.100000 28.08600
12784 SI 12784 SI SI1 12784 1.100000 28.08600
12785 SI 12785 SI SI1 12785 1.100000 28.08600
12786 SI 12786 SI SI1 12786 1.100000 28.08600
12787 SI 12787 SI SI1 12787 1.100000 28.08600
12788 SI 12788 SI SI1 12788 1.100000 28.08600
12789 SI 12789 SI SI1 12789 1.100000 28.08600
12790 SI 12790 SI SI1 12790 1.100000 28.08600
12791 SI 12791 SI SI1 12791 1.100000 28.08600
12792 SI 12792 SI SI1 12792 1.100000 28.08600
12793 SI 12793 SI SI1 12793 1.100000 28.08600
12794 SI 12794 SI SI1 12794 1.100000 28.08600
12795 SI 12795 SI SI1 12795 1.100000 28.08600
12796 SI 12796 SI SI1 12796 1.100000 28.08600
12797 SI 12797 SI SI1 12797 1.100000 28.08600
12798 SI 12798 SI SI1 12798 1.100000 28.08600
12799 SI 12799 SI SI1 12799 1.100000 28.08600
12800 SI 12800 SI SI1 12800 1.100000 28.08600
12801 SI 12801 SI SI1 12801 1.100000 28.08600
12802 SI 12802 SI SI1 12802 1.100000 28.08600
12803 SI 12803 SI SI1 12803 1.100000 28.08600
12804 SI 12804 SI SI1 12804 1.100000 28.08600
12805 SI 12805 SI SI1 12805 1.100000 28.08600
12806 SI 12806 SI SI1 12806 1.100000 28.08600
12807 SI 12807 SI SI1 12807 1.100000 28.08600
12808 SI 12808 SI SI1 12808 1.100000 28.08600
12809 SI 12809 SI SI1 12809 1.100000 28.08600
12810 SI 12810 SI SI1 12810 1.100000 28.08600
12811 SI 12811 SI SI1 12811 1.100000 28.08600
12812 SI 12812 SI SI1 12812 1.100000 28.08600
12813 SI 12813 SI SI1 12813 1.100000 28.08600
12814 SI 12814 SI SI1 12814 1.100000 28.08600
12815 SI 12815 SI SI1 12815 1.100000 28.08600
12816 SI 12816 SI SI1 12816 1.100000 28.08600
12817 SI 12817 SI SI1 12817 1.100000 28.08600
12818 SI 12818 SI SI1 12818 1.100000 28.08600
12819 SI 12819 SI SI1 12819 1.100000 28.08600
12820 SI 12820 SI SI1 12820 1.100000 28.08600
12821 SI 12821 SI SI1 12821 1.100000 28.08600
12822 SI 12822 SI SI1 12822 1.100000 28.08600
12823 SI 12823 SI SI1 12823 1.100000 28.08600
12824 SI 12824 SI SI1 12824 1.100000 28.08600
12825 SI 12825 SI SI1 12825 1.100000 28.08600
12826 SI 12826 SI SI1 12826 1.100000 28.08600
12827 SI 12827 SI SI1 12827 1.100000 28.08600
12828 SI 12828 SI SI1 12828 1.100000 28.08600
12829 SI 12829 SI SI1 12829 1.100000 28.08600
12830 SI 12830 SI SI1 12830 1.100000 28.08600
12831 SI 12831 SI SI1 12831 1.100000 28.08600
12832 SI 12832 SI SI1 12832 1.100000 28.08600
12833 SI 12833 SI SI1 12833 1.100000 28.08600
12834 SI 12834 SI SI1 12834 1.100000 28.08600
12835 SI 12835 SI SI1 12835 1.100000 28.08600
12836 SI 12836 SI SI1 12836 1.100000 28.08600
12837 SI 12837 SI SI1 12837 1.100000 28.08600
12838 SI 12838 SI SI1 12838 1.100000 28.08600
12839 SI 12839 SI SI1 12839 1.100000 28.08600
12840 SI 12840 SI SI1 12840 1.100000 28.08600
12841 SI 12841 SI SI1 12841 1.100000 28.08600
12842 SI 12842 SI SI1 12842 1.100000 28.08600
12843 SI 12843 SI SI1 12843 1.100000 28.08600
12844 SI 12844 SI SI1 12844 1.100000 28.08600
12845 SI 12845 SI SI1 12845 1.100000 28.08600
12846 SI 12846 SI SI1 12846 1.100000 28.08600
12847 SI 12847 SI SI1 12847 1.100000 28.08600
12848 SI 12848 SI SI1 12848 1.100000 28.08600
12849 SI 12849 SI SI1 12849 1.100000 28.08600
12850 SI 12850 SI SI1 12850 1.100000 28.08600
12851 SI 12851 SI SI1 12851 1.100000 28.08600
12852 SI 12852 SI SI1 12852 1.100000 28.08600
12853 SI 12853 SI SI1 12853 1.100000 28.08600
12854 SI 12854 SI SI1 12854 1.100000 28.08600
12855 SI 12855 SI SI1 12855 1.100000 28.08600
12856 SI 12856 SI SI1 12856 1.100000 28.08600
12857 SI 12857 SI SI1 12857 1.100000 28.08600
12858 SI 12858 SI SI1 12858 1.100000 28.08600
12859 SI 12859 SI SI1 12859 1.100000 28.08600
12860 SI 12860 SI SI1 12860 1.100000 28.08600
12861 SI 12861 SI SI1 12861 1.100000 28.08600
12862 SI 12862 SI SI1 12862 1.100000 28.08600
12863 SI 12863 SI SI1 12863 1.100000 28.08600
12864 SI 12864 SI SI1 12864 1.100000 28.08600
12865 SI 12865 SI SI1 12865 1.100000 28.08600
12866 SI 12866 SI SI1 12866 1.100000 28.08600
12867 SI 12867 SI SI1 12867 1.100000 28.08600
12868 SI 12868 SI SI1 12868 1.100000 28.08600
12869 SI 12869 SI SI1 12869 1.100000 28.08600
12870 SI 12870 SI SI1 12870 1.100000 28.08600
12871 SI 12871 SI SI1 12871 1.100000 28.08600
12872 SI 12872 SI SI1 12872 1.100000 28.08600
12873 SI 12873 SI SI1 12873 1.100000 28.08600
12874 SI 12874 SI SI1 12874 1.100000 28.08600
12875 SI 12875 SI SI1 12875 1.100000 28.08600
12876 SI 12876 SI SI1 12876 1.100000 28.08600
12877 SI 12877 SI SI1 12877 1.100000 28.08600
12878 SI 12878 SI SI1 12878 1.100000 28.08600
12879 SI 12879 SI SI1 12879 1.100000 28.08600
12880 SI 12880 SI SI1 12880 1.100000 28.08600
12881 SI 12881 SI SI1 12881 1.100000 28.08600
12882 SI 12882 SI SI1 12882 1.100000 28.08600
12883 SI 12883 SI SI1 12883 1.100000 28.08600
12884 SI 12884 SI SI1 12884 1.100000 28.08600
12885 SI 12885 SI SI1 12885 1.100000 28.08600
12886 SI 12886 SI SI1 12886 1.100000 28.08600
12887 SI 12887 SI SI1 12887 1.100000 28.08600
12888 SI 12888 SI SI1 12888 1.100000 28.08600
12889 SI 12889 SI SI1 12889 1.100000 28.08600
12890 SI 12890 SI SI1 12890 1.100000 28.08600
12891 SI 12891 SI SI1 12891 1.100000 28.08600
12892 SI 12892 SI SI1 12892 1.100000 28.08600
12893 SI 12893 SI SI1 12893 1.100000 28.08600
12894 SI 12894 SI SI1 12894 1.100000 28.08600
12895 SI 12895 SI SI1 12895 1.100000 28.08600
12896 SI 12896 SI SI1 12896 1.100000 28.08600
12897 SI 12897 SI SI1 12897 1.100000 28.08600
12898 SI 12898 SI SI1 12898 1.100000 28.08600
12899 SI 12899 SI SI1 12899 1.100000 28.08600
12900 SI 12900 SI SI1 12900 1.100000 28.08600
12901 SI 12901 SI SI1 12901 1.100000 28.08600
12902 SI 12902 SI SI1 12902 1.100000 28.08600
12903 SI 12903 SI SI1 12903 1.100000 28.08600
12904 SI 12904 SI SI1 12904 1.100000 28.08600
12905 SI 12905 SI SI1 12905 1.100000 28.08600
12906 SI 12906 SI SI1 12906 1.100000 28.08600
12907 SI 12907 SI SI1 12907 1.100000 28.08600
12908 SI 12908 SI SI1 12908 1.100000 28.08600
12909 SI 12909 SI SI1 12909 1.100000 28.08600
12910 SI 12910 SI SI1 12910 1.100000 28.08600
12911 SI 12911 SI SI1 12911 1.100000 28.08600
12912 SI 12912 SI SI1 12912 1.100000 28.08600
12913 SI 12913 SI SI1 12913 1.100000 28.08600
12914 SI 12914 SI SI1 12914 1.100000 28.08600
12915 SI 12915 SI SI1 12915 1.100000 28.08600
12916 SI 12916 SI SI1 12916 1.100000 28.08600
12917 SI 12917 SI SI1 12917 1.100000 28.08600
12918 SI 12918 SI SI1 12918 1.100000 28.08600
12919 SI 12919 SI SI1 12919 1.100000 28.08600
12920 SI 12920 SI SI1 12920 1.100000 28.08600
12921 SI 12921 SI SI1 12921 1.100000 28.08600
12922 SI 12922 SI SI1 12922 1.100000 28.08600
12923 SI 12923 SI SI1 12923 1.100000 28.08600
12924 SI 12924 SI SI1 12924 1.100000 28.08600
12925 SI 12925 SI SI1 12925 1.100000 28.08600
12926 SI 12926 SI SI1 12926 1.100000 28.08600
12927 SI 12927 SI SI1 12927 1.100000 28.08600
12928 SI 12928 SI SI1 12928 1.100000 28.08600
12929 SI 12929 SI SI1 12929 1.100000 28.08600
12930 SI 12930 SI SI1 12930 1.100000 28.08600
12931 SI 12931 SI SI1 12931 1.100000 28.08600
12932 SI 12932 SI SI1 12932 1.100000 28.08600
12933 SI 12933 SI SI1 12933 1.100000 28.08600
12934 SI 12934 SI SI1 12934 1.100000 28.08600
12935 SI 12935 SI SI1 12935 1.100000 28.08600
12936 SI 12936 SI SI1 12936 1.100000 28.08600
12937 SI 12937 SI SI1 12937 1.100000 28.08600
12938 SI 12938 SI SI1 12938 1.100000 28.08600
12939 SI 12939 SI SI1 12939 1.100000 28.08600
12940 SI 12940 SI SI1 12940 1.100000 28.08600
12941 SI 12941 SI SI1 12941 1.100000 28.08600
12942 SI 12942 SI SI1 12942 1.100000 28.08600
12943 SI 12943 SI SI1 12943 1.100000 28.08600
12944 SI 12944 SI SI1 12944 1.100000 28.08600
12945 SI 12945 SI SI1 12945 1.100000 28.08600
12946 SI 12946 SI SI1 12946 1.100000 28.08600
12947 SI 12947 SI SI1 12947 1.100000 28.08600
12948 SI 12948 SI SI1 12948 1.100000 28.08600
12949 SI 12949 SI SI1 12949 1.100000 28.08600
12950 SI 12950 SI SI1 12950 1.100000 28.08600
12951 SI 12951 SI SI1 12951 1.100000 28.08600
12952 SI 12952 SI SI1 12952 1.100000 28.08600
12953 SI 12953 SI SI1 12953 1.100000 28.08600
12954 SI 12954 SI SI1 12954 1.100000 28.08600
12955 SI 12955 SI SI1 12955 1.100000 28.08600
12956 SI 12956 SI SI1 12956 1.100000 28.08600
12957 SI 12957 SI SI1 12957 1.100000 28.08600
12958 SI 12958 SI SI1 12958 1.100000 28.08600
12959 SI 12959 SI SI1 12959 1.100000 28.08600
12960 SI 12960 SI SI1 12960 1.100000 28.08600
12961 SI 12961 SI SI1 12961 1.100000 28.08600
12962 SI 12962 SI SI1 12962 1.100000 28.08600
12963 SI 12963 SI SI1 12963 1.100000 28.08600
12964 SI 12964 SI SI1 12964 1.100000 28.08600
12965 SI 12965 SI SI1 12965 1.100000 28.08600
12966 SI 12966 SI SI1 12966 1.100000 28.08600
12967 SI 12967 SI SI1 12967 1.100000 28.08600
12968 SI 12968 SI SI1 12968 1.100000 28.08600
12969 SI 12969 SI SI1 12969 1.100000 28.08600
12970 SI 12970 SI SI1 12970 1.100000 28.08600
12971 SI 12971 SI SI1 12971 1.100000 28.08600
12972 SI 12972 SI SI1 12972 1.100000 28.08600
12973 SI 12973 SI SI1 12973 1.100000 28.08600
12974 SI 12974 SI SI1 12974 1.100000 28.08600
12975 SI 12975 SI SI1 12975 1.100000 28.08600
12976 SI 12976 SI SI1 12976 1.100000 28.08600
12977 SI 12977 SI SI1 12977 1.100000 28.08600
12978 SI 12978 SI SI1 12978 1.100000 28.08600
12979 SI 12979 SI SI1 12979 1.100000 28.08600
12980 SI 12980 SI SI1 12980 1.100000 28.08600
12981 SI 12981 SI SI1 12981 1.100000 28.08600
12982 SI 12982 SI SI1 12982 1.100000 28.08600
12983 SI 12983 SI SI1 12983 1.100000 28.08600
12984 SI 12984 SI SI1 12984 1.100000 28.08600
12985 SI 12985 SI SI1 12985 1.100000 28.08600
12986 SI 12986 SI SI1 12986 1.100000 28.08600
12987 SI 12987 SI SI1 12987 1.100000 28.08600
12988 SI 12988 SI SI1 12988 1.100000 28.08600
12989 SI 12989 SI SI1 12989 1.100000 28.08600
12990 SI 12990 SI SI1 12990 1.100000 28.08600
12991 SI 12991 SI SI1 12991 1.100000 28.08600
12992 SI 12992 SI SI1 12992 1.100000 28.08600
12993 SI 12993 SI SI1 12993 1.100000 28.08600
12994 SI 12994 SI SI1 12994 1.100000 28.08600
12995 SI 12995 SI SI1 12995 1.100000 28.08600
12996 SI 12996 SI SI1 12996 1.100000 28.08600
12997 SI 12997 SI SI1 12997 1.100000 28.08600
12998 SI 12998 SI SI1 12998 1.100000 28.08600
12999 SI 12999 SI SI1 12999 1.100000 28.08600
13000 SI 13000 SI SI1 13000 1.100000 28.08600
13001 SI 13001 SI SI1 13001 1.100000 28.08600
13002 SI 13002 SI SI1 13002 1.100000 28.08600
13003 SI 13003 SI SI1 13003 1.100000 28.08600
13004 SI 13004 SI SI1 13004 1.100000 28.08600
13005 SI 13005 SI SI1 13005 1.100000 28.08600
13006 SI 13006 SI SI1 13006 1.100000 28.08600
13007 SI 13007 SI SI1 13007 1.100000 28.08600
13008 SI 13008 SI SI1 13008 1.100000 28.08600
13009 SI 13009 SI SI1 13009 1.100000 28.08600
13010 SI 13010 SI SI1 13010 1.100000 28.08600
13011 SI 13011 SI SI1 13011 1.100000 28.08600
13012 SI 13012 SI SI1 13012 1.100000 28.08600
13013 SI 13013 SI SI1 13013 1.100000 28.08600
13014 SI 13014 SI SI1 13014 1.100000 28.08600
13015 SI 13015 SI SI1 13015 1.100000 28.08600
13016 SI 13016 SI SI1 13016 1.100000 28.08600
13017 SI 13017 SI SI1 13017 1.100000 28.08600
13018 SI 13018 SI SI1 13018 1.100000 28.08600
13019 SI 13019 SI SI1 13019 1.100000 28.08600
13020 SI 13020 SI SI1 13020 1.100000 28.08600
13021 SI 13021 SI SI1 13021 1.100000 28.08600
13022 SI 13022 SI SI1 13022 1.100000 28.08600
13023 SI 13023 SI SI1 13023 1.100000 28.08600
13024 SI 13024 SI SI1 13024 1.100000 28.08600
13025 SI 13025 SI SI1 13025 1.100000 28.08600
13026 SI 13026 SI SI1 13026 1.100000 28.08600
13027 SI 13027 SI SI1 13027 1.100000 28.08600
13028 SI 13028 SI SI1 13028 1.100000 28.08600
13029 SI 13029 SI SI1 13029 1.100000 28.08600
13030 SI 13030 SI SI1 13030 1.100000 28.08600
13031 SI 13031 SI SI1 13031 1.100000 28.08600
13032 SI 13032 SI SI1 13032 1.100000 28.08600
13033 SI 13033 SI SI1 13033 1.100000 28.08600
13034 SI 13034 SI SI1 13034 1.100000 28.08600
13035 SI 13035 SI SI1 13035 1.100000 28.08600
13036 SI 13036 SI SI1 13036 1.100000 28.08600
13037 SI 13037 SI SI1 13037 1.100000 28.08600
13038 SI 13038 SI SI1 13038 1.100000 28.08600
13039 SI 13039 SI SI1 13039 1.100000 28.08600
13040 SI 13040 SI SI1 13040 1.100000 28.08600
13041 SI 13041 SI SI1 13041 1.100000 28.08600
13042 SI 13042 SI SI1 13042 1.100000 28.08600
13043 SI 13043 SI SI1 13043 1.100000 28.08600
13044 SI 13044 SI SI1 13044 1.100000 28.08600
13045 SI 13045 SI SI1 13045 1.100000 28.08600
13046 SI 13046 SI SI1 13046 1.100000 28.08600
13047 SI 13047 SI SI1 13047 1.100000 28.08600
13048 SI 13048 SI SI1 13048 1.100000 28.08600
13049 SI 13049 SI SI1 13049 1.100000 28.08600
13050 SI 13050 SI SI1 13050 1.100000 28.08600
13051 SI 13051 SI SI1 13051 1.100000 28.08600
13052 SI 13052 SI SI1 13052 1.100000 28.08600
13053 SI 13053 SI SI1 13053 1.100000 28.08600
13054 SI 13054 SI SI1 13054 1.100000 28.08600
13055 SI 13055 SI SI1 13055 1.100000 28.08600
13056 SI 13056 SI SI1 13056 1.100000 28.08600
13057 SI 13057 SI SI1 13057 1.100000 28.08600
13058 SI 13058 SI SI1 13058 1.100000 28.08600
13059 SI 13059 SI SI1 13059 1.100000 28.08600
13060 SI 13060 SI SI1 13060 1.100000 28.08600
13061 SI 13061 SI SI1 13061 1.100000 28.08600
13062 SI 13062 SI SI1 13062 1.100000 28.08600
13063 SI 13063 SI SI1 13063 1.100000 28.08600
13064 SI 13064 SI SI1 13064 1.100000 28.08600
13065 SI 13065 SI SI1 13065 1.100000 28.08600
13066 SI 13066 SI SI1 13066 1.100000 28.08600
13067 SI 13067 SI SI1 13067 1.100000 28.08600
13068 SI 13068 SI SI1 13068 1.100000 28.08600
13069 SI 13069 SI SI1 13069 1.100000 28.08600
13070 SI 13070 SI SI1 13070 1.100000 28.08600
13071 SI 13071 SI SI1 13071 1.100000 28.08600
13072 SI 13072 SI SI1 13072 1.100000 28.08600
13073 SI 13073 SI SI1 13073 1.100000 28.08600
13074 SI 13074 SI SI1 13074 1.100000 28.08600
13075 SI 13075 SI SI1 13075 1.100000 28.08600
13076 SI 13076 SI SI1 13076 1.100000 28.08600
13077 SI 13077 SI SI1 13077 1.100000 28.08600
13078 SI 13078 SI SI1 13078 1.100000 28.08600
13079 SI 13079 SI SI1 13079 1.100000 28.08600
13080 SI 13080 SI SI1 13080 1.100000 28.08600
13081 SI 13081 SI SI1 13081 1.100000 28.08600
13082 SI 13082 SI SI1 13082 1.100000 28.08600
13083 SI 13083 SI SI1 13083 1.100000 28.08600
13084 SI 13084 SI SI1 13084 1.100000 28.08600
13085 SI 13085 SI SI1 13085 1.100000 28.08600
13086 SI 13086 SI SI1 13086 1.100000 28.08600
13087 SI 13087 SI SI1 13087 1.100000 28.08600
13088 SI 13088 SI SI1 13088 1.100000 28.08600
13089 SI 13089 SI SI1 13089 1.100000 28.08600
13090 SI 13090 SI SI1 13090 1.100000 28.08600
13091 SI 13091 SI SI1 13091 1.100000 28.08600
13092 SI 13092 SI SI1 13092 1.100000 28.08600
13093 SI 13093 SI SI1 13093 1.100000 28.08600
13094 SI 13094 SI SI1 13094 1.100000 28.08600
13095 SI 13095 SI SI1 13095 1.100000 28.08600
13096 SI 13096 SI SI1 13096 1.100000 28.08600
13097 SI 13097 SI SI1 13097 1.100000 28.08600
13098 SI 13098 SI SI1 13098 1.100000 28.08600
13099 SI 13099 SI SI1 13099 1.100000 28.08600
13100 SI 13100 SI SI1 13100 1.100000 28.08600
13101 SI 13101 SI SI1 13101 1.100000 28.08600
13102 SI 13102 SI SI1 13102 1.100000 28.08600
13103 SI 13103 SI SI1 13103 1.100000 28.08600
13104 SI 13104 SI SI1 13104 1.100000 28.08600
13105 SI 13105 SI SI1 13105 1.100000 28.08600
13106 SI 13106 SI SI1 13106 1.100000 28.08600
13107 SI 13107 SI SI1 13107 1.100000 28.08600
13108 SI 13108 SI SI1 13108 1.100000 28.08600
13109 SI 13109 SI SI1 13109 1.100000 28.08600
13110 SI 13110 SI SI1 13110 1.100000 28.08600
13111 SI 13111 SI SI1 13111 1.100000 28.08600
13112 SI 13112 SI SI1 13112 1.100000 28.08600
13113 SI 13113 SI SI1 13113 1.100000 28.08600
13114 SI 13114 SI SI1 13114 1.100000 28.08600
13115 SI 13115 SI SI1 13115 1.100000 28.08600
13116 SI 13116 SI SI1 13116 1.100000 28.08600
13117 SI 13117 SI SI1 13117 1.100000 28.08600
13118 SI 13118 SI SI1 13118 1.100000 28.08600
13119 SI 13119 SI SI1 13119 1.100000 28.08600
13120 SI 13120 SI SI1 13120 1.100000 28.08600
13121 SI 13121 SI SI1 13121 1.100000 28.08600
13122 SI 13122 SI SI1 13122 1.100000 28.08600
13123 SI 13123 SI SI1 13123 1.100000 28.08600
13124 SI 13124 SI SI1 13124 1.100000 28.08600
13125 SI 13125 SI SI1 13125 1.100000 28.08600
13126 SI 13126 SI SI1 13126 1.100000 28.08600
13127 SI 13127 SI SI1 13127 1.100000 28.08600
13128 SI 13128 SI SI1 13128 1.100000 28.08600
13129 SI 13129 SI SI1 13129 1.100000 28.08600
13130 SI 13130 SI SI1 13130 1.100000 28.08600
13131 SI 13131 SI SI1 13131 1.100000 28.08600
13132 SI 13132 SI SI1 13132 1.100000 28.08600
13133 SI 13133 SI SI1 13133 1.100000 28.08600
13134 SI 13134 SI SI1 13134 1.100000 28.08600
13135 SI 13135 SI SI1 13135 1.100000 28.08600
13136 SI 13136 SI SI1 13136 1.100000 28.08600
13137 SI 13137 SI SI1 13137 1.100000 28.08600
13138 SI 13138 SI SI1 13138 1.100000 28.08600
13139 SI 13139 SI SI1 13139 1.100000 28.08600
13140 SI 13140 SI SI1 13140 1.100000 28.08600
13141 SI 13141 SI SI1 13141 1.100000 28.08600
13142 SI 13142 SI SI1 13142 1.100000 28.08600
13143 SI 13143 SI SI1 13143 1.100000 28.08600
13144 SI 13144 SI SI1 13144 1.100000 28.08600
13145 SI 13145 SI SI1 13145 1.100000 28.08600
13146 SI 13146 SI SI1 13146 1.100000 28.08600
13147 SI 13147 SI SI1 13147 1.100000 28.08600
13148 SI 13148 SI SI1 13148 1.100000 28.08600
13149 SI 13149 SI SI1 13149 1.100000 28.08600
13150 SI 13150 SI SI1 13150 1.100000 28.08600
13151 SI 13151 SI SI1 13151 1.100000 28.08600
13152 SI 13152 SI SI1 13152 1.100000 28.08600
13153 SI 13153 SI SI1 13153 1.100000 28.08600
13154 SI 13154 SI SI1 13154 1.100000 28.08600
13155 SI 13155 SI SI1 13155 1.100000 28.08600
13156 SI 13156 SI SI1 13156 1.100000 28.08600
13157 SI 13157 SI SI1 13157 1.100000 28.08600
13158 SI 13158 SI SI1 13158 1.100000 28.08600
13159 SI 13159 SI SI1 13159 1.100000 28.08600
13160 SI 13160 SI SI1 13160 1.100000 28.08600
13161 SI 13161 SI SI1 13161 1.100000 28.08600
13162 SI 13162 SI SI1 13162 1.100000 28.08600
13163 SI 13163 SI SI1 13163 1.100000 28.08600
13164 SI 13164 SI SI1 13164 1.100000 28.08600
13165 SI 13165 SI SI1 13165 1.100000 28.08600
13166 SI 13166 SI SI1 13166 1.100000 28.08600
13167 SI 13167 SI SI1 13167 1.100000 28.08600
13168 SI 13168 SI SI1 13168 1.100000 28.08600
13169 SI 13169 SI SI1 13169 1.100000 28.08600
13170 SI 13170 SI SI1 13170 1.100000 28.08600
13171 SI 13171 SI SI1 13171 1.100000 28.08600
13172 SI 13172 SI SI1 13172 1.100000 28.08600
13173 SI 13173 SI SI1 13173 1.100000 28.08600
13174 SI 13174 SI SI1 13174 1.100000 28.08600
13175 SI 13175 SI SI1 13175 1.100000 28.08600
13176 SI 13176 SI SI1 13176 1.100000 28.08600
13177 SI 13177 SI SI1 13177 1.100000 28.08600
13178 SI 13178 SI SI1 13178 1.100000 28.08600
13179 SI 13179 SI SI1 13179 1.100000 28.08600
13180 SI 13180 SI SI1 13180 1.100000 28.08600
13181 SI 13181 SI SI1 13181 1.100000 28.08600
13182 SI 13182 SI SI1 13182 1.100000 28.08600
13183 SI 13183 SI SI1 13183 1.100000 28.08600
13184 SI 13184 SI SI1 13184 1.100000 28.08600
13185 SI 13185 SI SI1 13185 1.100000 28.08600
13186 SI 13186 SI SI1 13186 1.100000 28.08600
13187 SI 13187 SI SI1 13187 1.100000 28.08600
13188 SI 13188 SI SI1 13188 1.100000 28.08600
13189 SI 13189 SI SI1 13189 1.100000 28.08600
13190 SI 13190 SI SI1 13190 1.100000 28.08600
13191 SI 13191 SI SI1 13191 1.100000 28.08600
13192 SI 13192 SI SI1 13192 1.100000 28.08600
13193 SI 13193 SI SI1 13193 1.100000 28.08600
13194 SI 13194 SI SI1 13194 1.100000 28.08600
13195 SI 13195 SI SI1 13195 1.100000 28.08600
13196 SI 13196 SI SI1 13196 1.100000 28.08600
13197 SI 13197 SI SI1 13197 1.100000 28.08600
13198 SI 13198 SI SI1 13198 1.100000 28.08600
13199 SI 13199 SI SI1 13199 1.100000 28.08600
13200 SI 13200 SI SI1 13200 1.100000 28.08600
13201 SI 13201 SI SI1 13201 1.100000 28.08600
13202 SI 13202 SI SI1 13202 1.100000 28.08600
13203 SI 13203 SI SI1 13203 1.100000 28.08600
13204 SI 13204 SI SI1 13204 1.100000 28.08600
13205 SI 13205 SI SI1 13205 1.100000 28.08600
13206 SI 13206 SI SI1 13206 1.100000 28.08600
13207 SI 13207 SI SI1 13207 1.100000 28.08600
13208 SI 13208 SI SI1 13208 1.100000 28.08600
13209 SI 13209 SI SI1 13209 1.100000 28.08600
13210 SI 13210 SI SI1 13210 1.100000 28.08600
13211 SI 13211 SI SI1 13211 1.100000 28.08600
13212 SI 13212 SI SI1 13212 1.100000 28.08600
13213 SI 13213 SI SI1 13213 1.100000 28.08600
13214 SI 13214 SI SI1 13214 1.100000 28.08600
13215 SI 13215 SI SI1 13215 1.100000 28.08600
13216 SI 13216 SI SI1 13216 1.100000 28.08600
13217 SI 13217 SI SI1 13217 1.100000 28.08600
13218 SI 13218 SI SI1 13218 1.100000 28.08600
13219 SI 13219 SI SI1 13219 1.100000 28.08600
13220 SI 13220 SI SI1 13220 1.100000 28.08600
13221 SI 13221 SI SI1 13221 1.100000 28.08600
13222 SI 13222 SI SI1 13222 1.100000 28.08600
13223 SI 13223 SI SI1 13223 1.100000 28.08600
13224 SI 13224 SI SI1 13224 1.100000 28.08600
13225 SI 13225 SI SI1 13225 1.100000 28.08600
13226 SI 13226 SI SI1 13226 1.100000 28.08600
13227 SI 13227 SI SI1 13227 1.100000 28.08600
13228 SI 13228 SI SI1 13228 1.100000 28.08600
13229 SI 13229 SI SI1 13229 1.100000 28.08600
13230 SI 13230 SI SI1 13230 1.100000 28.08600
13231 SI 13231 SI SI1 13231 1.100000 28.08600
13232 SI 13232 SI SI1 13232 1.100000 28.08600
13233 SI 13233 SI SI1 13233 1.100000 28.08600
13234 SI 13234 SI SI1 13234 1.100000 28.08600
13235 SI 13235 SI SI1 13235 1.100000 28.08600
13236 SI 13236 SI SI1 13236 1.100000 28.08600
13237 SI 13237 SI SI1 13237 1.100000 28.08600
13238 SI 13238 SI SI1 13238 1.100000 28.08600
13239 SI 13239 SI SI1 13239 1.100000 28.08600
13240 SI 13240 SI SI1 13240 1.100000 28.08600
13241 SI 13241 SI SI1 13241 1.100000 28.08600
13242 SI 13242 SI SI1 13242 1.100000 28.08600
13243 SI 13243 SI SI1 13243 1.100000 28.08600
13244 SI 13244 SI SI1 13244 1.100000 28.08600
13245 SI 13245 SI SI1 13245 1.100000 28.08600
13246 SI 13246 SI SI1 13246 1.100000 28.08600
13247 SI 13247 SI SI1 13247 1.100000 28.08600
13248 SI 13248 SI SI1 13248 1.100000 28.08600
13249 SI 13249 SI SI1 13249 1.100000 28.08600
13250 SI 13250 SI SI1 13250 1.100000 28.08600
13251 SI 13251 SI SI1 13251 1.100000 28.08600
13252 SI 13252 SI SI1 13252 1.100000 28.08600
13253 SI 13253 SI SI1 13253 1.100000 28.08600
13254 SI 13254 SI SI1 13254 1.100000 28.08600
13255 SI 13255 SI SI1 13255 1.100000 28.08600
13256 SI 13256 SI SI1 13256 1.100000 28.08600
13257 SI 13257 SI SI1 13257 1.100000 28.08600
13258 SI 13258 SI SI1 13258 1.100000 28.08600
13259 SI 13259 SI SI1 13259 1.100000 28.08600
13260 SI 13260 SI SI1 13260 1.100000 28.08600
13261 SI 13261 SI SI1 13261 1.100000 28.08600
13262 SI 13262 SI SI1 13262 1.100000 28.08600
13263 SI 13263 SI SI1 13263 1.100000 28.08600
13264 SI 13264 SI SI1 13264 1.100000 28.08600
13265 SI 13265 SI SI1 13265 1.100000 28.08600
13266 SI 13266 SI SI1 13266 1.100000 28.08600
13267 SI 13267 SI SI1 13267 1.100000 28.08600
13268 SI 13268 SI SI1 13268 1.100000 28.08600
13269 SI 13269 SI SI1 13269 1.100000 28.08600
13270 SI 13270 SI SI1 13270 1.100000 28.08600
13271 SI 13271 SI SI1 13271 1.100000 28.08600
13272 SI 13272 SI SI1 13272 1.100000 28.08600
13273 SI 13273 SI SI1 13273 1.100000 28.08600
13274 SI 13274 SI SI1 13274 1.100000 28.08600
13275 SI 13275 SI SI1 13275 1.100000 28.08600
13276 SI 13276 SI SI1 13276 1.100000 28.08600
13277 SI 13277 SI SI1 13277 1.100000 28.08600
13278 SI 13278 SI SI1 13278 1.100000 28.08600
13279 SI 13279 SI SI1 13279 1.100000 28.08600
13280 SI 13280 SI SI1 13280 1.100000 28.08600
13281 SI 13281 SI SI1 13281 1.100000 28.08600
13282 SI 13282 SI SI1 13282 1.100000 28.08600
13283 SI 13283 SI SI1 13283 1.100000 28.08600
13284 SI 13284 SI SI1 13284 1.100000 28.08600
13285 SI 13285 SI SI1 13285 1.100000 28.08600
13286 SI 13286 SI SI1 13286 1.100000 28.08600
13287 SI 13287 SI SI1 13287 1.100000 28.08600
13288 SI 13288 SI SI1 13288 1.100000 28.08600
13289 SI 13289 SI SI1 13289 1.100000 28.08600
13290 SI 13290 SI SI1 13290 1.100000 28.08600
13291 SI 13291 SI SI1 13291 1.100000 28.08600
13292 SI 13292 SI SI1 13292 1.100000 28.08600
13293 SI 13293 SI SI1 13293 1.100000 28.08600
13294 SI 13294 SI SI1 13294 1.100000 28.08600
13295 SI 13295 SI SI1 13295 1.100000 28.08600
13296 SI 13296 SI SI1 13296 1.100000 28.08600
13297 SI 13297 SI SI1 13297 1.100000 28.08600
13298 SI 13298 SI SI1 13298 1.100000 28.08600
13299 SI 13299 SI SI1 13299 1.100000 28.08600
13300 SI 13300 SI SI1 13300 1.100000 28.08600
13301 SI 13301 SI SI1 13301 1.100000 28.08600
13302 SI 13302 SI SI1 13302 1.100000 28.08600
13303 SI 13303 SI SI1 13303 1.100000 28.08600
13304 SI 13304 SI SI1 13304 1.100000 28.08600
13305 SI 13305 SI SI1 13305 1.100000 28.08600
13306 SI 13306 SI SI1 13306 1.100000 28.08600
13307 SI 13307 SI SI1 13307 1.100000 28.08600
13308 SI 13308 SI SI1 13308 1.100000 28.08600
13309 SI 13309 SI SI1 13309 1.100000 28.08600
13310 SI 13310 SI SI1 13310 1.100000 28.08600
13311 SI 13311 SI SI1 13311 1.100000 28.08600
13312 SI 13312 SI SI1 13312 1.100000 28.08600
13313 SI 13313 SI SI1 13313 1.100000 28.08600
13314 SI 13314 SI SI1 13314 1.100000 28.08600
13315 SI 13315 SI SI1 13315 1.100000 28.08600
13316 SI 13316 SI SI1 13316 1.100000 28.08600
13317 SI 13317 SI SI1 13317 1.100000 28.08600
13318 SI 13318 SI SI1 13318 1.100000 28.08600
13319 SI 13319 SI SI1 13319 1.100000 28.08600
13320 SI 13320 SI SI1 13320 1.100000 28.08600
13321 SI 13321 SI SI1 13321 1.100000 28.08600
13322 SI 13322 SI SI1 13322 1.100000 28.08600
13323 SI 13323 SI SI1 13323 1.100000 28.08600
13324 SI 13324 SI SI1 13324 1.100000 28.08600
13325 SI 13325 SI SI1 13325 1.100000 28.08600
13326 SI 13326 SI SI1 13326 1.100000 28.08600
13327 SI 13327 SI SI1 13327 1.100000 28.08600
13328 SI 13328 SI SI1 13328 1.100000 28.08600
13329 SI 13329 SI SI1 13329 1.100000 28.08600
13330 SI 13330 SI SI1 13330 1.100000 28.08600
13331 SI 13331 SI SI1 13331 1.100000 28.08600
13332 SI 13332 SI SI1 13332 1.100000 28.08600
13333 SI 13333 SI SI1 13333 1.100000 28.08600
13334 SI 13334 SI SI1 13334 1.100000 28.08600
13335 SI 13335 SI SI1 13335 1.100000 28.08600
13336 SI 13336 SI SI1 13336 1.100000 28.08600
13337 SI 13337 SI SI1 13337 1.100000 28.08600
13338 SI 13338 SI SI1 13338 1.100000 28.08600
13339 SI 13339 SI SI1 13339 1.100000 28.08600
13340 SI 13340 SI SI1 13340 1.100000 28.08600
13341 SI 13341 SI SI1 13341 1.100000 28.08600
13342 SI 13342 SI SI1 13342 1.100000 28.08600
13343 SI 13343 SI SI1 13343 1.100000 28.08600
13344 SI 13344 SI SI1 13344 1.100000 28.08600
13345 SI 13345 SI SI1 13345 1.100000 28.08600
13346 SI 13346 SI SI1 13346 1.100000 28.08600
13347 SI 13347 SI SI1 13347 1.100000 28.08600
13348 SI 13348 SI SI1 13348 1.100000 28.08600
13349 SI 13349 SI SI1 13349 1.100000 28.08600
13350 SI 13350 SI SI1 13350 1.100000 28.08600
13351 SI 13351 SI SI1 13351 1.100000 28.08600
13352 SI 13352 SI SI1 13352 1.100000 28.08600
13353 SI 13353 SI SI1 13353 1.100000 28.08600
13354 SI 13354 SI SI1 13354 1.100000 28.08600
13355 SI 13355 SI SI1 13355 1.100000 28.08600
13356 SI 13356 SI SI1 13356 1.100000 28.08600
13357 SI 13357 SI SI1 13357 1.100000 28.08600
13358 SI 13358 SI SI1 13358 1.100000 28.08600
13359 SI 13359 SI SI1 13359 1.100000 28.08600
13360 SI 13360 SI SI1 13360 1.100000 28.08600
13361 SI 13361 SI SI1 13361 1.100000 28.08600
13362 SI 13362 SI SI1 13362 1.100000 28.08600
13363 SI 13363 SI SI1 13363 1.100000 28.08600
13364 SI 13364 SI SI1 13364 1.100000 28.08600
13365 SI 13365 SI SI1 13365 1.100000 28.08600
13366 SI 13366 SI SI1 13366 1.100000 28.08600
13367 SI 13367 SI SI1 13367 1.100000 28.08600
13368 SI 13368 SI SI1 13368 1.100000 28.08600
13369 SI 13369 SI SI1 13369 1.100000 28.08600
13370 SI 13370 SI SI1 13370 1.100000 28.08600
13371 SI 13371 SI SI1 13371 1.100000 28.08600
13372 SI 13372 SI SI1 13372 1.100000 28.08600
13373 SI 13373 SI SI1 13373 1.100000 28.08600
13374 SI 13374 SI SI1 13374 1.100000 28.08600
13375 SI 13375 SI SI1 13375 1.100000 28.08600
13376 SI 13376 SI SI1 13376 1.100000 28.08600
13377 SI 13377 SI SI1 13377 1.100000 28.08600
13378 SI 13378 SI SI1 13378 1.100000 28.08600
13379 SI 13379 SI SI1 13379 1.100000 28.08600
13380 SI 13380 SI SI1 13380 1.100000 28.08600
13381 SI 13381 SI SI1 13381 1.100000 28.08600
13382 SI 13382 SI SI1 13382 1.100000 28.08600
13383 SI 13383 SI SI1 13383 1.100000 28.08600
13384 SI 13384 SI SI1 13384 1.100000 28.08600
13385 SI 13385 SI SI1 13385 1.100000 28.08600
13386 SI 13386 SI SI1 13386 1.100000 28.08600
13387 SI 13387 SI SI1 13387 1.100000 28.08600
13388 SI 13388 SI SI1 13388 1.100000 28.08600
13389 SI 13389 SI SI1 13389 1.100000 28.08600
13390 SI 13390 SI SI1 13390 1.100000 28.08600
13391 SI 13391 SI SI1 13391 1.100000 28.08600
13392 SI 13392 SI SI1 13392 1.100000 28.08600
13393 SI 13393 SI SI1 13393 1.100000 28.08600
13394 SI 13394 SI SI1 13394 1.100000 28.08600
13395 SI 13395 SI SI1 13395 1.100000 28.08600
13396 SI 13396 SI SI1 13396 1.100000 28.08600
13397 SI 13397 SI SI1 13397 1.100000 28.08600
13398 SI 13398 SI SI1 13398 1.100000 28.08600
13399 SI 13399 SI SI1 13399 1.100000 28.08600
13400 SI 13400 SI SI1 13400 1.100000 28.08600
13401 SI 13401 SI SI1 13401 1.100000 28.08600
13402 SI 13402 SI SI1 13402 1.100000 28.08600
13403 SI 13403 SI SI1 13403 1.100000 28.08600
13404 SI 13404 SI SI1 13404 1.100000 28.08600
13405 SI 13405 SI SI1 13405 1.100000 28.08600
13406 SI 13406 SI SI1 13406 1.100000 28.08600
13407 SI 13407 SI SI1 13407 1.100000 28.08600
13408 SI 13408 SI SI1 13408 1.100000 28.08600
13409 SI 13409 SI SI1 13409 1.100000 28.08600
13410 SI 13410 SI SI1 13410 1.100000 28.08600
13411 SI 13411 SI SI1 13411 1.100000 28.08600
13412 SI 13412 SI SI1 13412 1.100000 28.08600
13413 SI 13413 SI SI1 13413 1.100000 28.08600
13414 SI 13414 SI SI1 13414 1.100000 28.08600
13415 SI 13415 SI SI1 13415 1.100000 28.08600
13416 SI 13416 SI SI1 13416 1.100000 28.08600
13417 SI 13417 SI SI1 13417 1.100000 28.08600
13418 SI 13418 SI SI1 13418 1.100000 28.08600
13419 SI 13419 SI SI1 13419 1.100000 28.08600
13420 SI 13420 SI SI1 13420 1.100000 28.08600
13421 SI 13421 SI SI1 13421 1.100000 28.08600
13422 SI 13422 SI SI1 13422 1.100000 28.08600
13423 SI 13423 SI SI1 13423 1.100000 28.08600
13424 SI 13424 SI SI1 13424 1.100000 28.08600
13425 SI 13425 SI SI1 13425 1.100000 28.08600
13426 SI 13426 SI SI1 13426 1.100000 28.08600
13427 SI 13427 SI SI1 13427 1.100000 28.08600
13428 SI 13428 SI SI1 13428 1.100000 28.08600
13429 SI 13429 SI SI1 13429 1.100000 28.08600
13430 SI 13430 SI SI1 13430 1.100000 28.08600
13431 SI 13431 SI SI1 13431 1.100000 28.08600
13432 SI 13432 SI SI1 13432 1.100000 28.08600
13433 SI 13433 SI SI1 13433 1.100000 28.08600
13434 SI 13434 SI SI1 13434 1.100000 28.08600
13435 SI 13435 SI SI1 13435 1.100000 28.08600
13436 SI 13436 SI SI1 13436 1.100000 28.08600
13437 SI 13437 SI SI1 13437 1.100000 28.08600
13438 SI 13438 SI SI1 13438 1.100000 28.08600
13439 SI 13439 SI SI1 13439 1.100000 28.08600
13440 SI 13440 SI SI1 13440 1.100000 28.08600
13441 SI 13441 SI SI1 13441 1.100000 28.08600
13442 SI 13442 SI SI1 13442 1.100000 28.08600
13443 SI 13443 SI SI1 13443 1.100000 28.08600
13444 SI 13444 SI SI1 13444 1.100000 28.08600
13445 SI 13445 SI SI1 13445 1.100000 28.08600
13446 SI 13446 SI SI1 13446 1.100000 28.08600
13447 SI 13447 SI SI1 13447 1.100000 28.08600
13448 SI 13448 SI SI1 13448 1.100000 28.08600
13449 SI 13449 SI SI1 13449 1.100000 28.08600
13450 SI 13450 SI SI1 13450 1.100000 28.08600
13451 SI 13451 SI SI1 13451 1.100000 28.08600
13452 SI 13452 SI SI1 13452 1.100000 28.08600
13453 SI 13453 SI SI1 13453 1.100000 28.08600
13454 SI 13454 SI SI1 13454 1.100000 28.08600
13455 SI 13455 SI SI1 13455 1.100000 28.08600
13456 SI 13456 SI SI1 13456 1.100000 28.08600
13457 SI 13457 SI SI1 13457 1.100000 28.08600
13458 SI 13458 SI SI1 13458 1.100000 28.08600
13459 SI 13459 SI SI1 13459 1.100000 28.08600
13460 SI 13460 SI SI1 13460 1.100000 28.08600
13461 SI 13461 SI SI1 13461 1.100000 28.08600
13462 SI 13462 SI SI1 13462 1.100000 28.08600
13463 SI 13463 SI SI1 13463 1.100000 28.08600
13464 SI 13464 SI SI1 13464 1.100000 28.08600
13465 SI 13465 SI SI1 13465 1.100000 28.08600
13466 SI 13466 SI SI1 13466 1.100000 28.08600
13467 SI 13467 SI SI1 13467 1.100000 28.08600
13468 SI 13468 SI SI1 13468 1.100000 28.08600
13469 SI 13469 SI SI1 13469 1.100000 28.08600
13470 SI 13470 SI SI1 13470 1.100000 28.08600
13471 SI 13471 SI SI1 13471 1.100000 28.08600
13472 SI 13472 SI SI1 13472 1.100000 28.08600
13473 SI 13473 SI SI1 13473 1.100000 28.08600
13474 SI 13474 SI SI1 13474 1.100000 28.08600
13475 SI 13475 SI SI1 13475 1.100000 28.08600
13476 SI 13476 SI SI1 13476 1.100000 28.08600
13477 SI 13477 SI SI1 13477 1.100000 28.08600
13478 SI 13478 SI SI1 13478 1.100000 28.08600
13479 SI 13479 SI SI1 13479 1.100000 28.08600
13480 SI 13480 SI SI1 13480 1.100000 28.08600
13481 SI 13481 SI SI1 13481 1.100000 28.08600
13482 SI 13482 SI SI1 13482 1.100000 28.08600
13483 SI 13483 SI SI1 13483 1.100000 28.08600
13484 SI 13484 SI SI1 13484 1.100000 28.08600
13485 SI 13485 SI SI1 13485 1.100000 28.08600
13486 SI 13486 SI SI1 13486 1.100000 28.08600
13487 SI 13487 SI SI1 13487 1.100000 28.08600
13488 SI 13488 SI SI1 13488 1.100000 28.08600
13489 SI 13489 SI SI1 13489 1.100000 28.08600
13490 SI 13490 SI SI1 13490 1.100000 28.08600
13491 SI 13491 SI SI1 13491 1.100000 28.08600
13492 SI 13492 SI SI1 13492 1.100000 28.08600
13493 SI 13493 SI SI1 13493 1.100000 28.08600
13494 SI 13494 SI SI1 13494 1.100000 28.08600
13495 SI 13495 SI SI1 13495 1.100000 28.08600
13496 SI 13496 SI SI1 13496 1.100000 28.08600
13497 SI 13497 SI SI1 13497 1.100000 28.08600
13498 SI 13498 SI SI1 13498 1.100000 28.08600
13499 SI 13499 SI SI1 13499 1.100000 28.08600
13500 SI 13500 SI SI1 13500 1.100000 28.08600
13501 SI 13501 SI SI1 13501 1.100000 28.08600
13502 SI 13502 SI SI1 13502 1.100000 28.08600
13503 SI 13503 SI SI1 13503 1.100000 28.08600
13504 SI 13504 SI SI1 13504 1.100000 28.08600
13505 SI 13505 SI SI1 13505 1.100000 28.08600
13506 SI 13506 SI SI1 13506 1.100000 28.08600
13507 SI 13507 SI SI1 13507 1.100000 28.08600
13508 SI 13508 SI SI1 13508 1.100000 28.08600
13509 SI 13509 SI SI1 13509 1.100000 28.08600
13510 SI 13510 SI SI1 13510 1.100000 28.08600
13511 SI 13511 SI SI1 13511 1.100000 28.08600
13512 SI 13512 SI SI1 13512 1.100000 28.08600
13513 SI 13513 SI SI1 13513 1.100000 28.08600
13514 SI 13514 SI SI1 13514 1.100000 28.08600
13515 SI 13515 SI SI1 13515 1.100000 28.08600
13516 SI 13516 SI SI1 13516 1.100000 28.08600
13517 SI 13517 SI SI1 13517 1.100000 28.08600
13518 SI 13518 SI SI1 13518 1.100000 28.08600
13519 SI 13519 SI SI1 13519 1.100000 28.08600
13520 SI 13520 SI SI1 13520 1.100000 28.08600
13521 SI 13521 SI SI1 13521 1.100000 28.08600
13522 SI 13522 SI SI1 13522 1.100000 28.08600
13523 SI 13523 SI SI1 13523 1.100000 28.08600
13524 SI 13524 SI SI1 13524 1.100000 28.08600
13525 SI 13525 SI SI1 13525 1.100000 28.08600
13526 SI 13526 SI SI1 13526 1.100000 28.08600
13527 SI 13527 SI SI1 13527 1.100000 28.08600
13528 SI 13528 SI SI1 13528 1.100000 28.08600
13529 SI 13529 SI SI1 13529 1.100000 28.08600
13530 SI 13530 SI SI1 13530 1.100000 28.08600
13531 SI 13531 SI SI1 13531 1.100000 28.08600
13532 SI 13532 SI SI1 13532 1.100000 28.08600
13533 SI 13533 SI SI1 13533 1.100000 28.08600
13534 SI 13534 SI SI1 13534 1.100000 28.08600
13535 SI 13535 SI SI1 13535 1.100000 28.08600
13536 SI 13536 SI SI1 13536 1.100000 28.08600
13537 SI 13537 SI SI1 13537 1.100000 28.08600
13538 SI 13538 SI SI1 13538 1.100000 28.08600
13539 SI 13539 SI SI1 13539 1.100000 28.08600
13540 SI 13540 SI SI1 13540 1.100000 28.08600
13541 SI 13541 SI SI1 13541 1.100000 28.08600
13542 SI 13542 SI SI1 13542 1.100000 28.08600
13543 SI 13543 SI SI1 13543 1.100000 28.08600
13544 SI 13544 SI SI1 13544 1.100000 28.08600
13545 SI 13545 SI SI1 13545 1.100000 28.08600
13546 SI 13546 SI SI1 13546 1.100000 28.08600
13547 SI 13547 SI SI1 13547 1.100000 28.08600
13548 SI 13548 SI SI1 13548 1.100000 28.08600
13549 SI 13549 SI SI1 13549 1.100000 28.08600
13550 SI 13550 SI SI1 13550 1.100000 28.08600
13551 SI 13551 SI SI1 13551 1.100000 28.08600
13552 SI 13552 SI SI1 13552 1.100000 28.08600
13553 SI 13553 SI SI1 13553 1.100000 28.08600
13554 SI 13554 SI SI1 13554 1.100000 28.08600
13555 SI 13555 SI SI1 13555 1.100000 28.08600
13556 SI 13556 SI SI1 13556 1.100000 28.08600
13557 SI 13557 SI SI1 13557 1.100000 28.08600
13558 SI 13558 SI SI1 13558 1.100000 28.08600
13559 SI 13559 SI SI1 13559 1.100000 28.08600
13560 SI 13560 SI SI1 13560 1.100000 28.08600
13561 SI 13561 SI SI1 13561 1.100000 28.08600
13562 SI 13562 SI SI1 13562 1.100000 28.08600
13563 SI 13563 SI SI1 13563 1.100000 28.08600
13564 SI 13564 SI SI1 13564 1.100000 28.08600
13565 SI 13565 SI SI1 13565 1.100000 28.08600
13566 SI 13566 SI SI1 13566 1.100000 28.08600
13567 SI 13567 SI SI1 13567 1.100000 28.08600
13568 SI 13568 SI SI1 13568 1.100000 28.08600
13569 SI 13569 SI SI1 13569 1.100000 28.08600
13570 SI 13570 SI SI1 13570 1.100000 28.08600
13571 SI 13571 SI SI1 13571 1.100000 28.08600
13572 SI 13572 SI SI1 13572 1.100000 28.08600
13573 SI 13573 SI SI1 13573 1.100000 28.08600
13574 SI 13574 SI SI1 13574 1.100000 28.08600
13575 SI 13575 SI SI1 13575 1.100000 28.08600
13576 SI 13576 SI SI1 13576 1.100000 28.08600
13577 SI 13577 SI SI1 13577 1.100000 28.08600
13578 SI 13578 SI SI1 13578 1.100000 28.08600
13579 SI 13579 SI SI1 13579 1.100000 28.08600
13580 SI 13580 SI SI1 13580 1.100000 28.08600
13581 SI 13581 SI SI1 13581 1.100000 28.08600
13582 SI 13582 SI SI1 13582 1.100000 28.08600
13583 SI 13583 SI SI1 13583 1.100000 28.08600
13584 SI 13584 SI SI1 13584 1.100000 28.08600
13585 SI 13585 SI SI1 13585 1.100000 28.08600
13586 SI 13586 SI SI1 13586 1.100000 28.08600
13587 SI 13587 SI SI1 13587 1.100000 28.08600
13588 SI 13588 SI SI1 13588 1.100000 28.08600
13589 SI 13589 SI SI1 13589 1.100000 28.08600
13590 SI 13590 SI SI1 13590 1.100000 28.08600
13591 SI 13591 SI SI1 13591 1.100000 28.08600
13592 SI 13592 SI SI1 13592 1.100000 28.08600
13593 SI 13593 SI SI1 13593 1.100000 28.08600
13594 SI 13594 SI SI1 13594 1.100000 28.08600
13595 SI 13595 SI SI1 13595 1.100000 28.08600
13596 SI 13596 SI SI1 13596 1.100000 28.08600
13597 SI 13597 SI SI1 13597 1.100000 28.08600
13598 SI 13598 SI SI1 13598 1.100000 28.08600
13599 SI 13599 SI SI1 13599 1.100000 28.08600
13600 SI 13600 SI SI1 13600 1.100000 28.08600
13601 SI 13601 SI SI1 13601 1.100000 28.08600
13602 SI 13602 SI SI1 13602 1.100000 28.08600
13603 SI 13603 SI SI1 13603 1.100000 28.08600
13604 SI 13604 SI SI1 13604 1.100000 28.08600
13605 SI 13605 SI SI1 13605 1.100000 28.08600
13606 SI 13606 SI SI1 13606 1.100000 28.08600
13607 SI 13607 SI SI1 13607 1.100000 28.08600
13608 SI 13608 SI SI1 13608 1.100000 28.08600
13609 SI 13609 SI SI1 13609 1.100000 28.08600
13610 SI 13610 SI SI1 13610 1.100000 28.08600
13611 SI 13611 SI SI1 13611 1.100000 28.08600
13612 SI 13612 SI SI1 13612 1.100000 28.08600
13613 SI 13613 SI SI1 13613 1.100000 28.08600
13614 SI 13614 SI SI1 13614 1.100000 28.08600
13615 SI 13615 SI SI1 13615 1.100000 28.08600
13616 SI 13616 SI SI1 13616 1.100000 28.08600
13617 SI 13617 SI SI1 13617 1.100000 28.08600
13618 SI 13618 SI SI1 13618 1.100000 28.08600
13619 SI 13619 SI SI1 13619 1.100000 28.08600
13620 SI 13620 SI SI1 13620 1.100000 28.08600
13621 SI 13621 SI SI1 13621 1.100000 28.08600
13622 SI 13622 SI SI1 13622 1.100000 28.08600
13623 SI 13623 SI SI1 13623 1.100000 28.08600
13624 SI 13624 SI SI1 13624 1.100000 28.08600
13625 SI 13625 SI SI1 13625 1.100000 28.08600
13626 SI 13626 SI SI1 13626 1.100000 28.08600
13627 SI 13627 SI SI1 13627 1.100000 28.08600
13628 SI 13628 SI SI1 13628 1.100000 28.08600
13629 SI 13629 SI SI1 13629 1.100000 28.08600
13630 SI 13630 SI SI1 13630 1.100000 28.08600
13631 SI 13631 SI SI1 13631 1.100000 28.08600
13632 SI 13632 SI SI1 13632 1.100000 28.08600
13633 SI 13633 SI SI1 13633 1.100000 28.08600
13634 SI 13634 SI SI1 13634 1.100000 28.08600
13635 SI 13635 SI SI1 13635 1.100000 28.08600
13636 SI 13636 SI SI1 13636 1.100000 28.08600
13637 SI 13637 SI SI1 13637 1.100000 28.08600
13638 SI 13638 SI SI1 13638 1.100000 28.08600
13639 SI 13639 SI SI1 13639 1.100000 28.08600
13640 SI 13640 SI SI1 13640 1.100000 28.08600
13641 SI 13641 SI SI1 13641 1.100000 28.08600
13642 SI 13642 SI SI1 13642 1.100000 28.08600
13643 SI 13643 SI SI1 13643 1.100000 28.08600
13644 SI 13644 SI SI1 13644 1.100000 28.08600
13645 SI 13645 SI SI1 13645 1.100000 28.08600
13646 SI 13646 SI SI1 13646 1.100000 28.08600
13647 SI 13647 SI SI1 13647 1.100000 28.08600
13648 SI 13648 SI SI1 13648 1.100000 28.08600
13649 SI 13649 SI SI1 13649 1.100000 28.08600
13650 SI 13650 SI SI1 13650 1.100000 28.08600
13651 SI 13651 SI SI1 13651 1.100000 28.08600
13652 SI 13652 SI SI1 13652 1.100000 28.08600
13653 SI 13653 SI SI1 13653 1.100000 28.08600
13654 SI 13654 SI SI1 13654 1.100000 28.08600
13655 SI 13655 SI SI1 13655 1.100000 28.08600
13656 SI 13656 SI SI1 13656 1.100000 28.08600
13657 SI 13657 SI SI1 13657 1.100000 28.08600
13658 SI 13658 SI SI1 13658 1.100000 28.08600
13659 SI 13659 SI SI1 13659 1.100000 28.08600
13660 SI 13660 SI SI1 13660 1.100000 28.08600
13661 SI 13661 SI SI1 13661 1.100000 28.08600
13662 SI 13662 SI SI1 13662 1.100000 28.08600
13663 SI 13663 SI SI1 13663 1.100000 28.08600
13664 SI 13664 SI SI1 13664 1.100000 28.08600
13665 SI 13665 SI SI1 13665 1.100000 28.08600
13666 SI 13666 SI SI1 13666 1.100000 28.08600
13667 SI 13667 SI SI1 13667 1.100000 28.08600
13668 SI 13668 SI SI1 13668 1.100000 28.08600
13669 SI 13669 SI SI1 13669 1.100000 28.08600
13670 SI 13670 SI SI1 13670 1.100000 28.08600
13671 SI 13671 SI SI1 13671 1.100000 28.08600
13672 SI 13672 SI SI1 13672 1.100000 28.08600
13673 SI 13673 SI SI1 13673 1.100000 28.08600
13674 SI 13674 SI SI1 13674 1.100000 28.08600
13675 SI 13675 SI SI1 13675 1.100000 28.08600
13676 SI 13676 SI SI1 13676 1.100000 28.08600
13677 SI 13677 SI SI1 13677 1.100000 28.08600
13678 SI 13678 SI SI1 13678 1.100000 28.08600
13679 SI 13679 SI SI1 13679 1.100000 28.08600
13680 SI 13680 SI SI1 13680 1.100000 28.08600
13681 SI 13681 SI SI1 13681 1.100000 28.08600
13682 SI 13682 SI SI1 13682 1.100000 28.08600
13683 SI 13683 SI SI1 13683 1.100000 28.08600
13684 SI 13684 SI SI1 13684 1.100000 28.08600
13685 SI 13685 SI SI1 13685 1.100000 28.08600
13686 SI 13686 SI SI1 13686 1.100000 28.08600
13687 SI 13687 SI SI1 13687 1.100000 28.08600
13688 SI 13688 SI SI1 13688 1.100000 28.08600
13689 SI 13689 SI SI1 13689 1.100000 28.08600
13690 SI 13690 SI SI1 13690 1.100000 28.08600
13691 SI 13691 SI SI1 13691 1.100000 28.08600
13692 SI 13692 SI SI1 13692 1.100000 28.08600
13693 SI 13693 SI SI1 13693 1.100000 28.08600
13694 SI 13694 SI SI1 13694 1.100000 28.08600
13695 SI 13695 SI SI1 13695 1.100000 28.08600
13696 SI 13696 SI SI1 13696 1.100000 28.08600
13697 SI 13697 SI SI1 13697 1.100000 28.08600
13698 SI 13698 SI SI1 13698 1.100000 28.08600
13699 SI 13699 SI SI1 13699 1.100000 28.08600
13700 SI 13700 SI SI1 13700 1.100000 28.08600
13701 SI 13701 SI SI1 13701 1.100000 28.08600
13702 SI 13702 SI SI1 13702 1.100000 28.08600
13703 SI 13703 SI SI1 13703 1.100000 28.08600
13704 SI 13704 SI SI1 13704 1.100000 28.08600
13705 SI 13705 SI SI1 13705 1.100000 28.08600
13706 SI 13706 SI SI1 13706 1.100000 28.08600
13707 SI 13707 SI SI1 13707 1.100000 28.08600
13708 SI 13708 SI SI1 13708 1.100000 28.08600
13709 SI 13709 SI SI1 13709 1.100000 28.08600
13710 SI 13710 SI SI1 13710 1.100000 28.08600
13711 SI 13711 SI SI1 13711 1.100000 28.08600
13712 SI 13712 SI SI1 13712 1.100000 28.08600
13713 SI 13713 SI SI1 13713 1.100000 28.08600
13714 SI 13714 SI SI1 13714 1.100000 28.08600
13715 SI 13715 SI SI1 13715 1.100000 28.08600
13716 SI 13716 SI SI1 13716 1.100000 28.08600
13717 SI 13717 SI SI1 13717 1.100000 28.08600
13718 SI 13718 SI SI1 13718 1.100000 28.08600
13719 SI 13719 SI SI1 13719 1.100000 28.08600
13720 SI 13720 SI SI1 13720 1.100000 28.08600
13721 SI 13721 SI SI1 13721 1.100000 28.08600
13722 SI 13722 SI SI1 13722 1.100000 28.08600
13723 SI 13723 SI SI1 13723 1.100000 28.08600
13724 SI 13724 SI SI1 13724 1.100000 28.08600
13725 SI 13725 SI SI1 13725 1.100000 28.08600
13726 SI 13726 SI SI1 13726 1.100000 28.08600
13727 SI 13727 SI SI1 13727 1.100000 28.08600
13728 SI 13728 SI SI1 13728 1.100000 28.08600
13729 SI 13729 SI SI1 13729 1.100000 28.08600
13730 SI 13730 SI SI1 13730 1.100000 28.08600
13731 SI 13731 SI SI1 13731 1.100000 28.08600
13732 SI 13732 SI SI1 13732 1.100000 28.08600
13733 SI 13733 SI SI1 13733 1.100000 28.08600
13734 SI 13734 SI SI1 13734 1.100000 28.08600
13735 SI 13735 SI SI1 13735 1.100000 28.08600
13736 SI 13736 SI SI1 13736 1.100000 28.08600
13737 SI 13737 SI SI1 13737 1.100000 28.08600
13738 SI 13738 SI SI1 13738 1.100000 28.08600
13739 SI 13739 SI SI1 13739 1.100000 28.08600
13740 SI 13740 SI SI1 13740 1.100000 28.08600
13741 SI 13741 SI SI1 13741 1.100000 28.08600
13742 SI 13742 SI SI1 13742 1.100000 28.08600
13743 SI 13743 SI SI1 13743 1.100000 28.08600
13744 SI 13744 SI SI1 13744 1.100000 28.08600
13745 SI 13745 SI SI1 13745 1.100000 28.08600
13746 SI 13746 SI SI1 13746 1.100000 28.08600
13747 SI 13747 SI SI1 13747 1.100000 28.08600
13748 SI 13748 SI SI1 13748 1.100000 28.08600
13749 SI 13749 SI SI1 13749 1.100000 28.08600
13750 SI 13750 SI SI1 13750 1.100000 28.08600
13751 SI 13751 SI SI1 13751 1.100000 28.08600
13752 SI 13752 SI SI1 13752 1.100000 28.08600
13753 SI 13753 SI SI1 13753 1.100000 28.08600
13754 SI 13754 SI SI1 13754 1.100000 28.08600
13755 SI 13755 SI SI1 13755 1.100000 28.08600
13756 SI 13756 SI SI1 13756 1.100000 28.08600
13757 SI 13757 SI SI1 13757 1.100000 28.08600
13758 SI 13758 SI SI1 13758 1.100000 28.08600
13759 SI 13759 SI SI1 13759 1.100000 28.08600
13760 SI 13760 SI SI1 13760 1.100000 28.08600
13761 SI 13761 SI SI1 13761 1.100000 28.08600
13762 SI 13762 SI SI1 13762 1.100000 28.08600
13763 SI 13763 SI SI1 13763 1.100000 28.08600
13764 SI 13764 SI SI1 13764 1.100000 28.08600
13765 SI 13765 SI SI1 13765 1.100000 28.08600
13766 SI 13766 SI SI1 13766 1.100000 28.08600
13767 SI 13767 SI SI1 13767 1.100000 28.08600
13768 SI 13768 SI SI1 13768 1.100000 28.08600
13769 SI 13769 SI SI1 13769 1.100000 28.08600
13770 SI 13770 SI SI1 13770 1.100000 28.08600
13771 SI 13771 SI SI1 13771 1.100000 28.08600
13772 SI 13772 SI SI1 13772 1.100000 28.08600
13773 SI 13773 SI SI1 13773 1.100000 28.08600
13774 SI 13774 SI SI1 13774 1.100000 28.08600
13775 SI 13775 SI SI1 13775 1.100000 28.08600
13776 SI 13776 SI SI1 13776 1.100000 28.08600
13777 SI 13777 SI SI1 13777 1.100000 28.08600
13778 SI 13778 SI SI1 13778 1.100000 28.08600
13779 SI 13779 SI SI1 13779 1.100000 28.08600
13780 SI 13780 SI SI1 13780 1.100000 28.08600
13781 SI 13781 SI SI1 13781 1.100000 28.08600
13782 SI 13782 SI SI1 13782 1.100000 28.08600
13783 SI 13783 SI SI1 13783 1.100000 28.08600
13784 SI 13784 SI SI1 13784 1.100000 28.08600
13785 SI 13785 SI SI1 13785 1.100000 28.08600
13786 SI 13786 SI SI1 13786 1.100000 28.08600
13787 SI 13787 SI SI1 13787 1.100000 28.08600
13788 SI 13788 SI SI1 13788 1.100000 28.08600
13789 SI 13789 SI SI1 13789 1.100000 28.08600
13790 SI 13790 SI SI1 13790 1.100000 28.08600
13791 SI 13791 SI SI1 13791 1.100000 28.08600
13792 SI 13792 SI SI1 13792 1.100000 28.08600
13793 SI 13793 SI SI1 13793 1.100000 28.08600
13794 SI 13794 SI SI1 13794 1.100000 28.08600
13795 SI 13795 SI SI1 13795 1.100000 28.08600
13796 SI 13796 SI SI1 13796 1.100000 28.08600
13797 SI 13797 SI SI1 13797 1.100000 28.08600
13798 SI 13798 SI SI1 13798 1.100000 28.08600
13799 SI 13799 SI SI1 13799 1.100000 28.08600
13800 SI 13800 SI SI1 13800 1.100000 28.08600
13801 SI 13801 SI SI1 13801 1.100000 28.08600
13802 SI 13802 SI SI1 13802 1.100000 28.08600
13803 SI 13803 SI SI1 13803 1.100000 28.08600
13804 SI 13804 SI SI1 13804 1.100000 28.08600
13805 SI 13805 SI SI1 13805 1.100000 28.08600
13806 SI 13806 SI SI1 13806 1.100000 28.08600
13807 SI 13807 SI SI1 13807 1.100000 28.08600
13808 SI 13808 SI SI1 13808 1.100000 28.08600
13809 SI 13809 SI SI1 13809 1.100000 28.08600
13810 SI 13810 SI SI1 13810 1.100000 28.08600
13811 SI 13811 SI SI1 13811 1.100000 28.08600
13812 SI 13812 SI SI1 13812 1.100000 28.08600
13813 SI 13813 SI SI1 13813 1.100000 28.08600
13814 SI 13814 SI SI1 13814 1.100000 28.08600
13815 SI 13815 SI SI1 13815 1.100000 28.08600
13816 SI 13816 SI SI1 13816 1.100000 28.08600
13817 SI 13817 SI SI1 13817 1.100000 28.08600
13818 SI 13818 SI SI1 13818 1.100000 28.08600
13819 SI 13819 SI SI1 13819 1.100000 28.08600
13820 SI 13820 SI SI1 13820 1.100000 28.08600
13821 SI 13821 SI SI1 13821 1.100000 28.08600
13822 SI 13822 SI SI1 13822 1.100000 28.08600
13823 SI 13823 SI SI1 13823 1.100000 28.08600
13824 SI 13824 SI SI1 13824 1.100000 28.08600
13825 SI 13825 SI SI1 13825 1.100000 28.08600
13826 SI 13826 SI SI1 13826 1.100000 28.08600
13827 SI 13827 SI SI1 13827 1.100000 28.08600
13828 SI 13828 SI SI1 13828 1.100000 28.08600
13829 SI 13829 SI SI1 13829 1.100000 28.08600
13830 SI 13830 SI SI1 13830 1.100000 28.08600
13831 SI 13831 SI SI1 13831 1.100000 28.08600
13832 SI 13832 SI SI1 13832 1.100000 28.08600
13833 SI 13833 SI SI1 13833 1.100000 28.08600
13834 SI 13834 SI SI1 13834 1.100000 28.08600
13835 SI 13835 SI SI1 13835 1.100000 28.08600
13836 SI 13836 SI SI1 13836 1.100000 28.08600
13837 SI 13837 SI SI1 13837 1.100000 28.08600
13838 SI 13838 SI SI1 13838 1.100000 28.08600
13839 SI 13839 SI SI1 13839 1.100000 28.08600
13840 SI 13840 SI SI1 13840 1.100000 28.08600
13841 SI 13841 SI SI1 13841 1.100000 28.08600
13842 SI 13842 SI SI1 13842 1.100000 28.08600
13843 SI 13843 SI SI1 13843 1.100000 28.08600
13844 SI 13844 SI SI1 13844 1.100000 28.08600
13845 SI 13845 SI SI1 13845 1.100000 28.08600
13846 SI 13846 SI SI1 13846 1.100000 28.08600
13847 SI 13847 SI SI1 13847 1.100000 28.08600
13848 SI 13848 SI SI1 13848 1.100000 28.08600
13849 SI 13849 SI SI1 13849 1.100000 28.08600
13850 SI 13850 SI SI1 13850 1.100000 28.08600
13851 SI 13851 SI SI1 13851 1.100000 28.08600
13852 SI 13852 SI SI1 13852 1.100000 28.08600
13853 SI 13853 SI SI1 13853 1.100000 28.08600
13854 SI 13854 SI SI1 13854 1.100000 28.08600
13855 SI 13855 SI SI1 13855 1.100000 28.08600
13856 SI 13856 SI SI1 13856 1.100000 28.08600
13857 SI 13857 SI SI1 13857 1.100000 28.08600
13858 SI 13858 SI SI1 13858 1.100000 28.08600
13859 SI 13859 SI SI1 13859 1.100000 28.08600
13860 SI 13860 SI SI1 13860 1.100000 28.08600
13861 SI 13861 SI SI1 13861 1.100000 28.08600
13862 SI 13862 SI SI1 13862 1.100000 28.08600
13863 SI 13863 SI SI1 13863 1.100000 28.08600
13864 SI 13864 SI SI1 13864 1.100000 28.08600
13865 SI 13865 SI SI1 13865 1.100000 28.08600
13866 SI 13866 SI SI1 13866 1.100000 28.08600
13867 SI 13867 SI SI1 13867 1.100000 28.08600
13868 SI 13868 SI SI1 13868 1.100000 28.08600
13869 SI 13869 SI SI1 13869 1.100000 28.08600
13870 SI 13870 SI SI1 13870 1.100000 28.08600
13871 SI 13871 SI SI1 13871 1.100000 28.08600
13872 SI 13872 SI SI1 13872 1.100000 28.08600
13873 SI 13873 SI SI1 13873 1.100000 28.08600
13874 SI 13874 SI SI1 13874 1.100000 28.08600
13875 SI 13875 SI SI1 13875 1.100000 28.08600
13876 SI 13876 SI SI1 13876 1.100000 28.08600
13877 SI 13877 SI SI1 13877 1.100000 28.08600
13878 SI 13878 SI SI1 13878 1.100000 28.08600
13879 SI 13879 SI SI1 13879 1.100000 28.08600
13880 SI 13880 SI SI1 13880 1.100000 28.08600
13881 SI 13881 SI SI1 13881 1.100000 28.08600
13882 SI 13882 SI SI1 13882 1.100000 28.08600
13883 SI 13883 SI SI1 13883 1.100000 28.08600
13884 SI 13884 SI SI1 13884 1.100000 28.08600
13885 SI 13885 SI SI1 13885 1.100000 28.08600
13886 SI 13886 SI SI1 13886 1.100000 28.08600
13887 SI 13887 SI SI1 13887 1.100000 28.08600
13888 SI 13888 SI SI1 13888 1.100000 28.08600
13889 SI 13889 SI SI1 13889 1.100000 28.08600
13890 SI 13890 SI SI1 13890 1.100000 28.08600
13891 SI 13891 SI SI1 13891 1.100000 28.08600
13892 SI 13892 SI SI1 13892 1.100000 28.08600
13893 SI 13893 SI SI1 13893 1.100000 28.08600
13894 SI 13894 SI SI1 13894 1.100000 28.08600
13895 SI 13895 SI SI1 13895 1.100000 28.08600
13896 SI 13896 SI SI1 13896 1.100000 28.08600
13897 SI 13897 SI SI1 13897 1.100000 28.08600
13898 SI 13898 SI SI1 13898 1.100000 28.08600
13899 SI 13899 SI SI1 13899 1.100000 28.08600
13900 SI 13900 SI SI1 13900 1.100000 28.08600
13901 SI 13901 SI SI1 13901 1.100000 28.08600
13902 SI 13902 SI SI1 13902 1.100000 28.08600
13903 SI 13903 SI SI1 13903 1.100000 28.08600
13904 SI 13904 SI SI1 13904 1.100000 28.08600
13905 SI 13905 SI SI1 13905 1.100000 28.08600
13906 SI 13906 SI SI1 13906 1.100000 28.08600
13907 SI 13907 SI SI1 13907 1.100000 28.08600
13908 SI 13908 SI SI1 13908 1.100000 28.08600
13909 SI 13909 SI SI1 13909 1.100000 28.08600
13910 SI 13910 SI SI1 13910 1.100000 28.08600
13911 SI 13911 SI SI1 13911 1.100000 28.08600
13912 SI 13912 SI SI1 13912 1.100000 28.08600
13913 SI 13913 SI SI1 13913 1.100000 28.08600
13914 SI 13914 SI SI1 13914 1.100000 28.08600
13915 SI 13915 SI SI1 13915 1.100000 28.08600
13916 SI 13916 SI SI1 13916 1.100000 28.08600
13917 SI 13917 SI SI1 13917 1.100000 28.08600
13918 SI 13918 SI SI1 13918 1.100000 28.08600
13919 SI 13919 SI SI1 13919 1.100000 28.08600
13920 SI 13920 SI SI1 13920 1.100000 28.08600
13921 SI 13921 SI SI1 13921 1.100000 28.08600
13922 SI 13922 SI SI1 13922 1.100000 28.08600
13923 SI 13923 SI SI1 13923 1.100000 28.08600
13924 SI 13924 SI SI1 13924 1.100000 28.08600
13925 SI 13925 SI SI1 13925 1.100000 28.08600
13926 SI 13926 SI SI1 13926 1.100000 28.08600
13927 SI 13927 SI SI1 13927 1.100000 28.08600
13928 SI 13928 SI SI1 13928 1.100000 28.08600
13929 SI 13929 SI SI1 13929 1.100000 28.08600
13930 SI 13930 SI SI1 13930 1.100000 28.08600
13931 SI 13931 SI SI1 13931 1.100000 28.08600
13932 SI 13932 SI SI1 13932 1.100000 28.08600
13933 SI 13933 SI SI1 13933 1.100000 28.08600
13934 SI 13934 SI SI1 13934 1.100000 28.08600
13935 SI 13935 SI SI1 13935 1.100000 28.08600
13936 SI 13936 SI SI1 13936 1.100000 28.08600
13937 SI 13937 SI SI1 13937 1.100000 28.08600
13938 SI 13938 SI SI1 13938 1.100000 28.08600
13939 SI 13939 SI SI1 13939 1.100000 28.08600
13940 SI 13940 SI SI1 13940 1.100000 28.08600
13941 SI 13941 SI SI1 13941 1.100000 28.08600
13942 SI 13942 SI SI1 13942 1.100000 28.08600
13943 SI 13943 SI SI1 13943 1.100000 28.08600
13944 SI 13944 SI SI1 13944 1.100000 28.08600
13945 SI 13945 SI SI1 13945 1.100000 28.08600
13946 SI 13946 SI SI1 13946 1.100000 28.08600
13947 SI 13947 SI SI1 13947 1.100000 28.08600
13948 SI 13948 SI SI1 13948 1.100000 28.08600
13949 SI 13949 SI SI1 13949 1.100000 28.08600
13950 SI 13950 SI SI1 13950 1.100000 28.08600
13951 SI 13951 SI SI1 13951 1.100000 28.08600
13952 SI 13952 SI SI1 13952 1.100000 28.08600
13953 SI 13953 SI SI1 13953 1.100000 28.08600
13954 SI 13954 SI SI1 13954 1.100000 28.08600
13955 SI 13955 SI SI1 13955 1.100000 28.08600
13956 SI 13956 SI SI1 13956 1.100000 28.08600
13957 SI 13957 SI SI1 13957 1.100000 28.08600
13958 SI 13958 SI SI1 13958 1.100000 28.08600
13959 SI 13959 SI SI1 13959 1.100000 28.08600
13960 SI 13960 SI SI1 13960 1.100000 28.08600
13961 SI 13961 SI SI1 13961 1.100000 28.08600
13962 SI 13962 SI SI1 13962 1.100000 28.08600
13963 SI 13963 SI SI1 13963 1.100000 28.08600
13964 SI 13964 SI SI1 13964 1.100000 28.08600
13965 SI 13965 SI SI1 13965 1.100000 28.08600
13966 SI 13966 SI SI1 13966 1.100000 28.08600
13967 SI 13967 SI SI1 13967 1.100000 28.08600
13968 SI 13968 SI SI1 13968 1.100000 28.08600
13969 SI 13969 SI SI1 13969 1.100000 28.08600
13970 SI 13970 SI SI1 13970 1.100000 28.08600
13971 SI 13971 SI SI1 13971 1.100000 28.08600
13972 SI 13972 SI SI1 13972 1.100000 28.08600
13973 SI 13973 SI SI1 13973 1.100000 28.08600
13974 SI 13974 SI SI1 13974 1.100000 28.08600
13975 SI 13975 SI SI1 13975 1.100000 28.08600
13976 SI 13976 SI SI1 13976 1.100000 28.08600
13977 SI 13977 SI SI1 13977 1.100000 28.08600
13978 SI 13978 SI SI1 13978 1.100000 28.08600
13979 SI 13979 SI SI1 13979 1.100000 28.08600
13980 SI 13980 SI SI1 13980 1.100000 28.08600
13981 SI 13981 SI SI1 13981 1.100000 28.08600
13982 SI 13982 SI SI1 13982 1.100000 28.08600
13983 SI 13983 SI SI1 13983 1.100000 28.08600
13984 SI 13984 SI SI1 13984 1.100000 28.08600
13985 SI 13985 SI SI1 13985 1.100000 28.08600
13986 SI 13986 SI SI1 13986 1.100000 28.08600
13987 SI 13987 SI SI1 13987 1.100000 28.08600
13988 SI 13988 SI SI1 13988 1.100000 28.08600
13989 SI 13989 SI SI1 13989 1.100000 28.08600
13990 SI 13990 SI SI1 13990 1.100000 28.08600
13991 SI 13991 SI SI1 13991 1.100000 28.08600
13992 SI 13992 SI SI1 13992 1.100000 28.08600
13993 SI 13993 SI SI1 13993 1.100000 28.08600
13994 SI 13994 SI SI1 13994 1.100000 28.08600
13995 SI 13995 SI SI1 13995 1.100000 28.08600
13996 SI 13996 SI SI1 13996 1.100000 28.08600
13997 SI 13997 SI SI1 13997 1.100000 28.08600
13998 SI 13998 SI SI1 13998 1.100000 28.08600
13999 SI 13999 SI SI1 13999 1.100000 28.08600
14000 SI 14000 SI SI1 14000 1.100000 28.08600
14001 SI 14001 SI SI1 14001 1.100000 28.08600
14002 SI 14002 SI SI1 14002 1.100000 28.08600
14003 SI 14003 SI SI1 14003 1.100000 28.08600
14004 SI 14004 SI SI1 14004 1.100000 28.08600
14005 SI 14005 SI SI1 14005 1.100000 28.08600
14006 SI 14006 SI SI1 14006 1.100000 28.08600
14007 SI 14007 SI SI1 14007 1.100000 28.08600
14008 SI 14008 SI SI1 14008 1.100000 28.08600
14009 SI 14009 SI SI1 14009 1.100000 28.08600
14010 SI 14010 SI SI1 14010 1.100000 28.08600
14011 SI 14011 SI SI1 14011 1.100000 28.08600
14012 SI 14012 SI SI1 14012 1.100000 28.08600
14013 SI 14013 SI SI1 14013 1.100000 28.08600
14014 SI 14014 SI SI1 14014 1.100000 28.08600
14015 SI 14015 SI SI1 14015 1.100000 28.08600
14016 SI 14016 SI SI1 14016 1.100000 28.08600
14017 SI 14017 SI SI1 14017 1.100000 28.08600
14018 SI 14018 SI SI1 14018 1.100000 28.08600
14019 SI 14019 SI SI1 14019 1.100000 28.08600
14020 SI 14020 SI SI1 14020 1.100000 28.08600
14021 SI 14021 SI SI1 14021 1.100000 28.08600
14022 SI 14022 SI SI1 14022 1.100000 28.08600
14023 SI 14023 SI SI1 14023 1.100000 28.08600
14024 SI 14024 SI SI1 14024 1.100000 28.08600
14025 SI 14025 SI SI1 14025 1.100000 28.08600
14026 SI 14026 SI SI1 14026 1.100000 28.08600
14027 SI 14027 SI SI1 14027 1.100000 28.08600
14028 SI 14028 SI SI1 14028 1.100000 28.08600
14029 SI 14029 SI SI1 14029 1.100000 28.08600
14030 SI 14030 SI SI1 14030 1.100000 28.08600
14031 SI 14031 SI SI1 14031 1.100000 28.08600
14032 SI 14032 SI SI1 14032 1.100000 28.08600
14033 SI 14033 SI SI1 14033 1.100000 28.08600
14034 SI 14034 SI SI1 14034 1.100000 28.08600
14035 SI 14035 SI SI1 14035 1.100000 28.08600
14036 SI 14036 SI SI1 14036 1.100000 28.08600
14037 SI 14037 SI SI1 14037 1.100000 28.08600
14038 SI 14038 SI SI1 14038 1.100000 28.08600
14039 SI 14039 SI SI1 14039 1.100000 28.08600
14040 SI 14040 SI SI1 14040 1.100000 28.08600
14041 SI 14041 SI SI1 14041 1.100000 28.08600
14042 SI 14042 SI SI1 14042 1.100000 28.08600
14043 SI 14043 SI SI1 14043 1.100000 28.08600
14044 SI 14044 SI SI1 14044 1.100000 28.08600
14045 SI 14045 SI SI1 14045 1.100000 28.08600
14046 SI 14046 SI SI1 14046 1.100000 28.08600
14047 SI 14047 SI SI1 14047 1.100000 28.08600
14048 SI 14048 SI SI1 14048 1.100000 28.08600
14049 SI 14049 SI SI1 14049 1.100000 28.08600
14050 SI 14050 SI SI1 14050 1.100000 28.08600
14051 SI 14051 SI SI1 14051 1.100000 28.08600
14052 SI 14052 SI SI1 14052 1.100000 28.08600
14053 SI 14053 SI SI1 14053 1.100000 28.08600
14054 SI 14054 SI SI1 14054 1.100000 28.08600
14055 SI 14055 SI SI1 14055 1.100000 28.08600
14056 SI 14056 SI SI1 14056 1.100000 28.08600
14057 SI 14057 SI SI1 14057 1.100000 28.08600
14058 SI 14058 SI SI1 14058 1.100000 28.08600
14059 SI 14059 SI SI1 14059 1.100000 28.08600
14060 SI 14060 SI SI1 14060 1.100000 28.08600
14061 SI 14061 SI SI1 14061 1.100000 28.08600
14062 SI 14062 SI SI1 14062 1.100000 28.08600
14063 SI 14063 SI SI1 14063 1.100000 28.08600
14064 SI 14064 SI SI1 14064 1.100000 28.08600
14065 SI 14065 SI SI1 14065 1.100000 28.08600
14066 SI 14066 SI SI1 14066 1.100000 28.08600
14067 SI 14067 SI SI1 14067 1.100000 28.08600
14068 SI 14068 SI SI1 14068 1.100000 28.08600
14069 SI 14069 SI SI1 14069 1.100000 28.08600
14070 SI 14070 SI SI1 14070 1.100000 28.08600
14071 SI 14071 SI SI1 14071 1.100000 28.08600
14072 SI 14072 SI SI1 14072 1.100000 28.08600
14073 SI 14073 SI SI1 14073 1.100000 28.08600
14074 SI 14074 SI SI1 14074 1.100000 28.08600
14075 SI 14075 SI SI1 14075 1.100000 28.08600
14076 SI 14076 SI SI1 14076 1.100000 28.08600
14077 SI 14077 SI SI1 14077 1.100000 28.08600
14078 SI 14078 SI SI1 14078 1.100000 28.08600
14079 SI 14079 SI SI1 14079 1.100000 28.08600
14080 SI 14080 SI SI1 14080 1.100000 28.08600
14081 SI 14081 SI SI1 14081 1.100000 28.08600
14082 SI 14082 SI SI1 14082 1.100000 28.08600
14083 SI 14083 SI SI1 14083 1.100000 28.08600
14084 SI 14084 SI SI1 14084 1.100000 28.08600
14085 SI 14085 SI SI1 14085 1.100000 28.08600
14086 SI 14086 SI SI1 14086 1.100000 28.08600
14087 SI 14087 SI SI1 14087 1.100000 28.08600
14088 SI 14088 SI SI1 14088 1.100000 28.08600
14089 SI 14089 SI SI1 14089 1.100000 28.08600
14090 SI 14090 SI SI1 14090 1.100000 28.08600
14091 SI 14091 SI SI1 14091 1.100000 28.08600
14092 SI 14092 SI SI1 14092 1.100000 28.08600
14093 SI 14093 SI SI1 14093 1.100000 28.08600
14094 SI 14094 SI SI1 14094 1.100000 28.08600
14095 SI 14095 SI SI1 14095 1.100000 28.08600
14096 SI 14096 SI SI1 14096 1.100000 28.08600
14097 SI 14097 SI SI1 14097 1.100000 28.08600
14098 SI 14098 SI SI1 14098 1.100000 28.08600
14099 SI 14099 SI SI1 14099 1.100000 28.08600
14100 SI 14100 SI SI1 14100 1.100000 28.08600
14101 SI 14101 SI SI1 14101 1.100000 28.08600
14102 SI 14102 SI SI1 14102 1.100000 28.08600
14103 SI 14103 SI SI1 14103 1.100000 28.08600
14104 SI 14104 SI SI1 14104 1.100000 28.08600
14105 SI 14105 SI SI1 14105 1.100000 28.08600
14106 SI 14106 SI SI1 14106 1.100000 28.08600
14107 SI 14107 SI SI1 14107 1.100000 28.08600
14108 SI 14108 SI SI1 14108 1.100000 28.08600
14109 SI 14109 SI SI1 14109 1.100000 28.08600
14110 SI 14110 SI SI1 14110 1.100000 28.08600
14111 SI 14111 SI SI1 14111 1.100000 28.08600
14112 SI 14112 SI SI1 14112 1.100000 28.08600
14113 SI 14113 SI SI1 14113 1.100000 28.08600
14114 SI 14114 SI SI1 14114 1.100000 28.08600
14115 SI 14115 SI SI1 14115 1.100000 28.08600
14116 SI 14116 SI SI1 14116 1.100000 28.08600
14117 SI 14117 SI SI1 14117 1.100000 28.08600
14118 SI 14118 SI SI1 14118 1.100000 28.08600
14119 SI 14119 SI SI1 14119 1.100000 28.08600
14120 SI 14120 SI SI1 14120 1.100000 28.08600
14121 SI 14121 SI SI1 14121 1.100000 28.08600
14122 SI 14122 SI SI1 14122 1.100000 28.08600
14123 SI 14123 SI SI1 14123 1.100000 28.08600
14124 SI 14124 SI SI1 14124 1.100000 28.08600
14125 SI 14125 SI SI1 14125 1.100000 28.08600
14126 SI 14126 SI SI1 14126 1.100000 28.08600
14127 SI 14127 SI SI1 14127 1.100000 28.08600
14128 SI 14128 SI SI1 14128 1.100000 28.08600
14129 SI 14129 SI SI1 14129 1.100000 28.08600
14130 SI 14130 SI SI1 14130 1.100000 28.08600
14131 SI 14131 SI SI1 14131 1.100000 28.08600
14132 SI 14132 SI SI1 14132 1.100000 28.08600
14133 SI 14133 SI SI1 14133 1.100000 28.08600
14134 SI 14134 SI SI1 14134 1.100000 28.08600
14135 SI 14135 SI SI1 14135 1.100000 28.08600
14136 SI 14136 SI SI1 14136 1.100000 28.08600
14137 SI 14137 SI SI1 14137 1.100000 28.08600
14138 SI 14138 SI SI1 14138 1.100000 28.08600
14139 SI 14139 SI SI1 14139 1.100000 28.08600
14140 SI 14140 SI SI1 14140 1.100000 28.08600
14141 SI 14141 SI SI1 14141 1.100000 28.08600
14142 SI 14142 SI SI1 14142 1.100000 28.08600
14143 SI 14143 SI SI1 14143 1.100000 28.08600
14144 SI 14144 SI SI1 14144 1.100000 28.08600
14145 SI 14145 SI SI1 14145 1.100000 28.08600
14146 SI 14146 SI SI1 14146 1.100000 28.08600
14147 SI 14147 SI SI1 14147 1.100000 28.08600
14148 SI 14148 SI SI1 14148 1.100000 28.08600
14149 SI 14149 SI SI1 14149 1.100000 28.08600
14150 SI 14150 SI SI1 14150 1.100000 28.08600
14151 SI 14151 SI SI1 14151 1.100000 28.08600
14152 SI 14152 SI SI1 14152 1.100000 28.08600
14153 SI 14153 SI SI1 14153 1.100000 28.08600
14154 SI 14154 SI SI1 14154 1.100000 28.08600
14155 SI 14155 SI SI1 14155 1.100000 28.08600
14156 SI 14156 SI SI1 14156 1.100000 28.08600
14157 SI 14157 SI SI1 14157 1.100000 28.08600
14158 SI 14158 SI SI1 14158 1.100000 28.08600
14159 SI 14159 SI SI1 14159 1.100000 28.08600
14160 SI 14160 SI SI1 14160 1.100000 28.08600
14161 SI 14161 SI SI1 14161 1.100000 28.08600
14162 SI 14162 SI SI1 14162 1.100000 28.08600
14163 SI 14163 SI SI1 14163 1.100000 28.08600
14164 SI 14164 SI SI1 14164 1.100000 28.08600
14165 SI 14165 SI SI1 14165 1.100000 28.08600
14166 SI 14166 SI SI1 14166 1.100000 28.08600
14167 SI 14167 SI SI1 14167 1.100000 28.08600
14168 SI 14168 SI SI1 14168 1.100000 28.08600
14169 SI 14169 SI SI1 14169 1.100000 28.08600
14170 SI 14170 SI SI1 14170 1.100000 28.08600
14171 SI 14171 SI SI1 14171 1.100000 28.08600
14172 SI 14172 SI SI1 14172 1.100000 28.08600
14173 SI 14173 SI SI1 14173 1.100000 28.08600
14174 SI 14174 SI SI1 14174 1.100000 28.08600
14175 SI 14175 SI SI1 14175 1.100000 28.08600
14176 SI 14176 SI SI1 14176 1.100000 28.08600
14177 SI 14177 SI SI1 14177 1.100000 28.08600
14178 SI 14178 SI SI1 14178 1.100000 28.08600
14179 SI 14179 SI SI1 14179 1.100000 28.08600
14180 SI 14180 SI SI1 14180 1.100000 28.08600
14181 SI 14181 SI SI1 14181 1.100000 28.08600
14182 SI 14182 SI SI1 14182 1.100000 28.08600
14183 SI 14183 SI SI1 14183 1.100000 28.08600
14184 SI 14184 SI SI1 14184 1.100000 28.08600
14185 SI 14185 SI SI1 14185 1.100000 28.08600
14186 SI 14186 SI SI1 14186 1.100000 28.08600
14187 SI 14187 SI SI1 14187 1.100000 28.08600
14188 SI 14188 SI SI1 14188 1.100000 28.08600
14189 SI 14189 SI SI1 14189 1.100000 28.08600
14190 SI 14190 SI SI1 14190 1.100000 28.08600
14191 SI 14191 SI SI1 14191 1.100000 28.08600
14192 SI 14192 SI SI1 14192 1.100000 28.08600
14193 SI 14193 SI SI1 14193 1.100000 28.08600
14194 SI 14194 SI SI1 14194 1.100000 28.08600
14195 SI 14195 SI SI1 14195 1.100000 28.08600
14196 SI 14196 SI SI1 14196 1.100000 28.08600
14197 SI 14197 SI SI1 14197 1.100000 28.08600
14198 SI 14198 SI SI1 14198 1.100000 28.08600
14199 SI 14199 SI SI1 14199 1.100000 28.08600
14200 SI 14200 SI SI1 14200 1.100000 28.08600
14201 SI 14201 SI SI1 14201 1.100000 28.08600
14202 SI 14202 SI SI1 14202 1.100000 28.08600
14203 SI 14203 SI SI1 14203 1.100000 28.08600
14204 SI 14204 SI SI1 14204 1.100000 28.08600
14205 SI 14205 SI SI1 14205 1.100000 28.08600
14206 SI 14206 SI SI1 14206 1.100000 28.08600
14207 SI 14207 SI SI1 14207 1.100000 28.08600
14208 SI 14208 SI SI1 14208 1.100000 28.08600
14209 SI 14209 SI SI1 14209 1.100000 28.08600
14210 SI 14210 SI SI1 14210 1.100000 28.08600
14211 SI 14211 SI SI1 14211 1.100000 28.08600
14212 SI 14212 SI SI1 14212 1.100000 28.08600
14213 SI 14213 SI SI1 14213 1.100000 28.08600
14214 SI 14214 SI SI1 14214 1.100000 28.08600
14215 SI 14215 SI SI1 14215 1.100000 28.08600
14216 SI 14216 SI SI1 14216 1.100000 28.08600
14217 SI 14217 SI SI1 14217 1.100000 28.08600
14218 SI 14218 SI SI1 14218 1.100000 28.08600
14219 SI 14219 SI SI1 14219 1.100000 28.08600
14220 SI 14220 SI SI1 14220 1.100000 28.08600
14221 SI 14221 SI SI1 14221 1.100000 28.08600
14222 SI 14222 SI SI1 14222 1.100000 28.08600
14223 SI 14223 SI SI1 14223 1.100000 28.08600
14224 SI 14224 SI SI1 14224 1.100000 28.08600
14225 SI 14225 SI SI1 14225 1.100000 28.08600
14226 SI 14226 SI SI1 14226 1.100000 28.08600
14227 SI 14227 SI SI1 14227 1.100000 28.08600
14228 SI 14228 SI SI1 14228 1.100000 28.08600
14229 SI 14229 SI SI1 14229 1.100000 28.08600
14230 SI 14230 SI SI1 14230 1.100000 28.08600
14231 SI 14231 SI SI1 14231 1.100000 28.08600
14232 SI 14232 SI SI1 14232 1.100000 28.08600
14233 SI 14233 SI SI1 14233 1.100000 28.08600
14234 SI 14234 SI SI1 14234 1.100000 28.08600
14235 SI 14235 SI SI1 14235 1.100000 28.08600
14236 SI 14236 SI SI1 14236 1.100000 28.08600
14237 SI 14237 SI SI1 14237 1.100000 28.08600
14238 SI 14238 SI SI1 14238 1.100000 28.08600
14239 SI 14239 SI SI1 14239 1.100000 28.08600
14240 SI 14240 SI SI1 14240 1.100000 28.08600
14241 SI 14241 SI SI1 14241 1.100000 28.08600
14242 SI 14242 SI SI1 14242 1.100000 28.08600
14243 SI 14243 SI SI1 14243 1.100000 28.08600
14244 SI 14244 SI SI1 14244 1.100000 28.08600
14245 SI 14245 SI SI1 14245 1.100000 28.08600
14246 SI 14246 SI SI1 14246 1.100000 28.08600
14247 SI 14247 SI SI1 14247 1.100000 28.08600
14248 SI 14248 SI SI1 14248 1.100000 28.08600
14249 SI 14249 SI SI1 14249 1.100000 28.08600
14250 SI 14250 SI SI1 14250 1.100000 28.08600
14251 SI 14251 SI SI1 14251 1.100000 28.08600
14252 SI 14252 SI SI1 14252 1.100000 28.08600
14253 SI 14253 SI SI1 14253 1.100000 28.08600
14254 SI 14254 SI SI1 14254 1.100000 28.08600
14255 SI 14255 SI SI1 14255 1.100000 28.08600
14256 SI 14256 SI SI1 14256 1.100000 28.08600
14257 SI 14257 SI SI1 14257 1.100000 28.08600
14258 SI 14258 SI SI1 14258 1.100000 28.08600
14259 SI 14259 SI SI1 14259 1.100000 28.08600
14260 SI 14260 SI SI1 14260 1.100000 28.08600
14261 SI 14261 SI SI1 14261 1.100000 28.08600
14262 SI 14262 SI SI1 14262 1.100000 28.08600
14263 SI 14263 SI SI1 14263 1.100000 28.08600
14264 SI 14264 SI SI1 14264 1.100000 28.08600
14265 SI 14265 SI SI1 14265 1.100000 28.08600
14266 SI 14266 SI SI1 14266 1.100000 28.08600
14267 SI 14267 SI SI1 14267 1.100000 28.08600
14268 SI 14268 SI SI1 14268 1.100000 28.08600
14269 SI 14269 SI SI1 14269 1.100000 28.08600
14270 SI 14270 SI SI1 14270 1.100000 28.08600
14271 SI 14271 SI SI1 14271 1.100000 28.08600
14272 SI 14272 SI SI1 14272 1.100000 28.08600
14273 SI 14273 SI SI1 14273 1.100000 28.08600
14274 SI 14274 SI SI1 14274 1.100000 28.08600
14275 SI 14275 SI SI1 14275 1.100000 28.08600
14276 SI 14276 SI SI1 14276 1.100000 28.08600
14277 SI 14277 SI SI1 14277 1.100000 28.08600
14278 SI 14278 SI SI1 14278 1.100000 28.08600
14279 SI 14279 SI SI1 14279 1.100000 28.08600
14280 SI 14280 SI SI1 14280 1.100000 28.08600
14281 SI 14281 SI SI1 14281 1.100000 28.08600
14282 SI 14282 SI SI1 14282 1.100000 28.08600
14283 SI 14283 SI SI1 14283 1.100000 28.08600
14284 SI 14284 SI SI1 14284 1.100000 28.08600
14285 SI 14285 SI SI1 14285 1.100000 28.08600
14286 SI 14286 SI SI1 14286 1.100000 28.08600
14287 SI 14287 SI SI1 14287 1.100000 28.08600
14288 SI 14288 SI SI1 14288 1.100000 28.08600
14289 SI 14289 SI SI1 14289 1.100000 28.08600
14290 SI 14290 SI SI1 14290 1.100000 28.08600
14291 SI 14291 SI SI1 14291 1.100000 28.08600
14292 SI 14292 SI SI1 14292 1.100000 28.08600
14293 SI 14293 SI SI1 14293 1.100000 28.08600
14294 SI 14294 SI SI1 14294 1.100000 28.08600
14295 SI 14295 SI SI1 14295 1.100000 28.08600
14296 SI 14296 SI SI1 14296 1.100000 28.08600
14297 SI 14297 SI SI1 14297 1.100000 28.08600
14298 SI 14298 SI SI1 14298 1.100000 28.08600
14299 SI 14299 SI SI1 14299 1.100000 28.08600
14300 SI 14300 SI SI1 14300 1.100000 28.08600
14301 SI 14301 SI SI1 14301 1.100000 28.08600
14302 SI 14302 SI SI1 14302 1.100000 28.08600
14303 SI 14303 SI SI1 14303 1.100000 28.08600
14304 SI 14304 SI SI1 14304 1.100000 28.08600
14305 SI 14305 SI SI1 14305 1.100000 28.08600
14306 SI 14306 SI SI1 14306 1.100000 28.08600
14307 SI 14307 SI SI1 14307 1.100000 28.08600
14308 SI 14308 SI SI1 14308 1.100000 28.08600
14309 SI 14309 SI SI1 14309 1.100000 28.08600
14310 SI 14310 SI SI1 14310 1.100000 28.08600
14311 SI 14311 SI SI1 14311 1.100000 28.08600
14312 SI 14312 SI SI1 14312 1.100000 28.08600
14313 SI 14313 SI SI1 14313 1.100000 28.08600
14314 SI 14314 SI SI1 14314 1.100000 28.08600
14315 SI 14315 SI SI1 14315 1.100000 28.08600
14316 SI 14316 SI SI1 14316 1.100000 28.08600
14317 SI 14317 SI SI1 14317 1.100000 28.08600
14318 SI 14318 SI SI1 14318 1.100000 28.08600
14319 SI 14319 SI SI1 14319 1.100000 28.08600
14320 SI 14320 SI SI1 14320 1.100000 28.08600
14321 SI 14321 SI SI1 14321 1.100000 28.08600
14322 SI 14322 SI SI1 14322 1.100000 28.08600
14323 SI 14323 SI SI1 14323 1.100000 28.08600
14324 SI 14324 SI SI1 14324 1.100000 28.08600
14325 SI 14325 SI SI1 14325 1.100000 28.08600
14326 SI 14326 SI SI1 14326 1.100000 28.08600
14327 SI 14327 SI SI1 14327 1.100000 28.08600
14328 SI 14328 SI SI1 14328 1.100000 28.08600
14329 SI 14329 SI SI1 14329 1.100000 28.08600
14330 SI 14330 SI SI1 14330 1.100000 28.08600
14331 SI 14331 SI SI1 14331 1.100000 28.08600
14332 SI 14332 SI SI1 14332 1.100000 28.08600
14333 SI 14333 SI SI1 14333 1.100000 28.08600
14334 SI 14334 SI SI1 14334 1.100000 28.08600
14335 SI 14335 SI SI1 14335 1.100000 28.08600
14336 SI 14336 SI SI1 14336 1.100000 28.08600
14337 SI 14337 SI SI1 14337 1.100000 28.08600
14338 SI 14338 SI SI1 14338 1.100000 28.08600
14339 SI 14339 SI SI1 14339 1.100000 28.08600
14340 SI 14340 SI SI1 14340 1.100000 28.08600
14341 SI 14341 SI SI1 14341 1.100000 28.08600
14342 SI 14342 SI SI1 14342 1.100000 28.08600
14343 SI 14343 SI SI1 14343 1.100000 28.08600
14344 SI 14344 SI SI1 14344 1.100000 28.08600
14345 SI 14345 SI SI1 14345 1.100000 28.08600
14346 SI 14346 SI SI1 14346 1.100000 28.08600
14347 SI 14347 SI SI1 14347 1.100000 28.08600
14348 SI 14348 SI SI1 14348 1.100000 28.08600
14349 SI 14349 SI SI1 14349 1.100000 28.08600
14350 SI 14350 SI SI1 14350 1.100000 28.08600
14351 SI 14351 SI SI1 14351 1.100000 28.08600
14352 SI 14352 SI SI1 14352 1.100000 28.08600
14353 SI 14353 SI SI1 14353 1.100000 28.08600
14354 SI 14354 SI SI1 14354 1.100000 28.08600
14355 SI 14355 SI SI1 14355 1.100000 28.08600
14356 SI 14356 SI SI1 14356 1.100000 28.08600
14357 SI 14357 SI SI1 14357 1.100000 28.08600
14358 SI 14358 SI SI1 14358 1.100000 28.08600
14359 SI 14359 SI SI1 14359 1.100000 28.08600
14360 SI 14360 SI SI1 14360 1.100000 28.08600
14361 SI 14361 SI SI1 14361 1.100000 28.08600
14362 SI 14362 SI SI1 14362 1.100000 28.08600
14363 SI 14363 SI SI1 14363 1.100000 28.08600
14364 SI 14364 SI SI1 14364 1.100000 28.08600
14365 SI 14365 SI SI1 14365 1.100000 28.08600
14366 SI 14366 SI SI1 14366 1.100000 28.08600
14367 SI 14367 SI SI1 14367 1.100000 28.08600
14368 SI 14368 SI SI1 14368 1.100000 28.08600
14369 SI 14369 SI SI1 14369 1.100000 28.08600
14370 SI 14370 SI SI1 14370 1.100000 28.08600
14371 SI 14371 SI SI1 14371 1.100000 28.08600
14372 SI 14372 SI SI1 14372 1.100000 28.08600
14373 SI 14373 SI SI1 14373 1.100000 28.08600
14374 SI 14374 SI SI1 14374 1.100000 28.08600
14375 SI 14375 SI SI1 14375 1.100000 28.08600
14376 SI 14376 SI SI1 14376 1.100000 28.08600
14377 SI 14377 SI SI1 14377 1.100000 28.08600
14378 SI 14378 SI SI1 14378 1.100000 28.08600
14379 SI 14379 SI SI1 14379 1.100000 28.08600
14380 SI 14380 SI SI1 14380 1.100000 28.08600
14381 SI 14381 SI SI1 14381 1.100000 28.08600
14382 SI 14382 SI SI1 14382 1.100000 28.08600
14383 SI 14383 SI SI1 14383 1.100000 28.08600
14384 SI 14384 SI SI1 14384 1.100000 28.08600
14385 SI 14385 SI SI1 14385 1.100000 28.08600
14386 SI 14386 SI SI1 14386 1.100000 28.08600
14387 SI 14387 SI SI1 14387 1.100000 28.08600
14388 SI 14388 SI SI1 14388 1.100000 28.08600
14389 SI 14389 SI SI1 14389 1.100000 28.08600
14390 SI 14390 SI SI1 14390 1.100000 28.08600
14391 SI 14391 SI SI1 14391 1.100000 28.08600
14392 SI 14392 SI SI1 14392 1.100000 28.08600
14393 SI 14393 SI SI1 14393 1.100000 28.08600
14394 SI 14394 SI SI1 14394 1.100000 28.08600
14395 SI 14395 SI SI1 14395 1.100000 28.08600
14396 SI 14396 SI SI1 14396 1.100000 28.08600
14397 SI 14397 SI SI1 14397 1.100000 28.08600
14398 SI 14398 SI SI1 14398 1.100000 28.08600
14399 SI 14399 SI SI1 14399 1.100000 28.08600
14400 SI 14400 SI SI1 14400 1.100000 28.08600
14401 SI 14401 SI SI1 14401 1.100000 28.08600
14402 SI 14402 SI SI1 14402 1.100000 28.08600
14403 SI 14403 SI SI1 14403 1.100000 28.08600
14404 SI 14404 SI SI1 14404 1.100000 28.08600
14405 SI 14405 SI SI1 14405 1.100000 28.08600
14406 SI 14406 SI SI1 14406 1.100000 28.08600
14407 SI 14407 SI SI1 14407 1.100000 28.08600
14408 SI 14408 SI SI1 14408 1.100000 28.08600
14409 SI 14409 SI SI1 14409 1.100000 28.08600
14410 SI 14410 SI SI1 14410 1.100000 28.08600
14411 SI 14411 SI SI1 14411 1.100000 28.08600
14412 SI 14412 SI SI1 14412 1.100000 28.08600
14413 SI 14413 SI SI1 14413 1.100000 28.08600
14414 SI 14414 SI SI1 14414 1.100000 28.08600
14415 SI 14415 SI SI1 14415 1.100000 28.08600
14416 SI 14416 SI SI1 14416 1.100000 28.08600
14417 SI 14417 SI SI1 14417 1.100000 28.08600
14418 SI 14418 SI SI1 14418 1.100000 28.08600
14419 SI 14419 SI SI1 14419 1.100000 28.08600
14420 SI 14420 SI SI1 14420 1.100000 28.08600
14421 SI 14421 SI SI1 14421 1.100000 28.08600
14422 SI 14422 SI SI1 14422 1.100000 28.08600
14423 SI 14423 SI SI1 14423 1.100000 28.08600
14424 SI 14424 SI SI1 14424 1.100000 28.08600
14425 SI 14425 SI SI1 14425 1.100000 28.08600
14426 SI 14426 SI SI1 14426 1.100000 28.08600
14427 SI 14427 SI SI1 14427 1.100000 28.08600
14428 SI 14428 SI SI1 14428 1.100000 28.08600
14429 SI 14429 SI SI1 14429 1.100000 28.08600
14430 SI 14430 SI SI1 14430 1.100000 28.08600
14431 SI 14431 SI SI1 14431 1.100000 28.08600
14432 SI 14432 SI SI1 14432 1.100000 28.08600
14433 SI 14433 SI SI1 14433 1.100000 28.08600
14434 SI 14434 SI SI1 14434 1.100000 28.08600
14435 SI 14435 SI SI1 14435 1.100000 28.08600
14436 SI 14436 SI SI1 14436 1.100000 28.08600
14437 SI 14437 SI SI1 14437 1.100000 28.08600
14438 SI 14438 SI SI1 14438 1.100000 28.08600
14439 SI 14439 SI SI1 14439 1.100000 28.08600
14440 SI 14440 SI SI1 14440 1.100000 28.08600
14441 SI 14441 SI SI1 14441 1.100000 28.08600
14442 SI 14442 SI SI1 14442 1.100000 28.08600
14443 SI 14443 SI SI1 14443 1.100000 28.08600
14444 SI 14444 SI SI1 14444 1.100000 28.08600
14445 SI 14445 SI SI1 14445 1.100000 28.08600
14446 SI 14446 SI SI1 14446 1.100000 28.08600
14447 SI 14447 SI SI1 14447 1.100000 28.08600
14448 SI 14448 SI SI1 14448 1.100000 28.08600
14449 SI 14449 SI SI1 14449 1.100000 28.08600
14450 SI 14450 SI SI1 14450 1.100000 28.08600
14451 SI 14451 SI SI1 14451 1.100000 28.08600
14452 SI 14452 SI SI1 14452 1.100000 28.08600
14453 SI 14453 SI SI1 14453 1.100000 28.08600
14454 SI 14454 SI SI1 14454 1.100000 28.08600
14455 SI 14455 SI SI1 14455 1.100000 28.08600
14456 SI 14456 SI SI1 14456 1.100000 28.08600
14457 SI 14457 SI SI1 14457 1.100000 28.08600
14458 SI 14458 SI SI1 14458 1.100000 28.08600
14459 SI 14459 SI SI1 14459 1.100000 28.08600
14460 SI 14460 SI SI1 14460 1.100000 28.08600
14461 SI 14461 SI SI1 14461 1.100000 28.08600
14462 SI 14462 SI SI1 14462 1.100000 28.08600
14463 SI 14463 SI SI1 14463 1.100000 28.08600
14464 SI 14464 SI SI1 14464 1.100000 28.08600
14465 SI 14465 SI SI1 14465 1.100000 28.08600
14466 SI 14466 SI SI1 14466 1.100000 28.08600
14467 SI 14467 SI SI1 14467 1.100000 28.08600
14468 SI 14468 SI SI1 14468 1.100000 28.08600
14469 SI 14469 SI SI1 14469 1.100000 28.08600
14470 SI 14470 SI SI1 14470 1.100000 28.08600
14471 SI 14471 SI SI1 14471 1.100000 28.08600
14472 SI 14472 SI SI1 14472 1.100000 28.08600
14473 SI 14473 SI SI1 14473 1.100000 28.08600
14474 SI 14474 SI SI1 14474 1.100000 28.08600
14475 SI 14475 SI SI1 14475 1.100000 28.08600
14476 SI 14476 SI SI1 14476 1.100000 28.08600
14477 SI 14477 SI SI1 14477 1.100000 28.08600
14478 SI 14478 SI SI1 14478 1.100000 28.08600
14479 SI 14479 SI SI1 14479 1.100000 28.08600
14480 SI 14480 SI SI1 14480 1.100000 28.08600
14481 SI 14481 SI SI1 14481 1.100000 28.08600
14482 SI 14482 SI SI1 14482 1.100000 28.08600
14483 SI 14483 SI SI1 14483 1.100000 28.08600
14484 SI 14484 SI SI1 14484 1.100000 28.08600
14485 SI 14485 SI SI1 14485 1.100000 28.08600
14486 SI 14486 SI SI1 14486 1.100000 28.08600
14487 SI 14487 SI SI1 14487 1.100000 28.08600
14488 SI 14488 SI SI1 14488 1.100000 28.08600
14489 SI 14489 SI SI1 14489 1.100000 28.08600
14490 SI 14490 SI SI1 14490 1.100000 28.08600
14491 SI 14491 SI SI1 14491 1.100000 28.08600
14492 SI 14492 SI SI1 14492 1.100000 28.08600
14493 SI 14493 SI SI1 14493 1.100000 28.08600
14494 SI 14494 SI SI1 14494 1.100000 28.08600
14495 SI 14495 SI SI1 14495 1.100000 28.08600
14496 SI 14496 SI SI1 14496 1.100000 28.08600
14497 SI 14497 SI SI1 14497 1.100000 28.08600
14498 SI 14498 SI SI1 14498 1.100000 28.08600
14499 SI 14499 SI SI1 14499 1.100000 28.08600
14500 SI 14500 SI SI1 14500 1.100000 28.08600
14501 SI 14501 SI SI1 14501 1.100000 28.08600
14502 SI 14502 SI SI1 14502 1.100000 28.08600
14503 SI 14503 SI SI1 14503 1.100000 28.08600
14504 SI 14504 SI SI1 14504 1.100000 28.08600
14505 SI 14505 SI SI1 14505 1.100000 28.08600
14506 SI 14506 SI SI1 14506 1.100000 28.08600
14507 SI 14507 SI SI1 14507 1.100000 28.08600
14508 SI 14508 SI SI1 14508 1.100000 28.08600
14509 SI 14509 SI SI1 14509 1.100000 28.08600
14510 SI 14510 SI SI1 14510 1.100000 28.08600
14511 SI 14511 SI SI1 14511 1.100000 28.08600
14512 SI 14512 SI SI1 14512 1.100000 28.08600
14513 SI 14513 SI SI1 14513 1.100000 28.08600
14514 SI 14514 SI SI1 14514 1.100000 28.08600
14515 SI 14515 SI SI1 14515 1.100000 28.08600
14516 SI 14516 SI SI1 14516 1.100000 28.08600
14517 SI 14517 SI SI1 14517 1.100000 28.08600
14518 SI 14518 SI SI1 14518 1.100000 28.08600
14519 SI 14519 SI SI1 14519 1.100000 28.08600
14520 SI 14520 SI SI1 14520 1.100000 28.08600
14521 SI 14521 SI SI1 14521 1.100000 28.08600
14522 SI 14522 SI SI1 14522 1.100000 28.08600
14523 SI 14523 SI SI1 14523 1.100000 28.08600
14524 SI 14524 SI SI1 14524 1.100000 28.08600
14525 SI 14525 SI SI1 14525 1.100000 28.08600
14526 SI 14526 SI SI1 14526 1.100000 28.08600
14527 SI 14527 SI SI1 14527 1.100000 28.08600
14528 SI 14528 SI SI1 14528 1.100000 28.08600
14529 SI 14529 SI SI1 14529 1.100000 28.08600
14530 SI 14530 SI SI1 14530 1.100000 28.08600
14531 SI 14531 SI SI1 14531 1.100000 28.08600
14532 SI 14532 SI SI1 14532 1.100000 28.08600
14533 SI 14533 SI SI1 14533 1.100000 28.08600
14534 SI 14534 SI SI1 14534 1.100000 28.08600
14535 SI 14535 SI SI1 14535 1.100000 28.08600
14536 SI 14536 SI SI1 14536 1.100000 28.08600
14537 SI 14537 SI SI1 14537 1.100000 28.08600
14538 SI 14538 SI SI1 14538 1.100000 28.08600
14539 SI 14539 SI SI1 14539 1.100000 28.08600
14540 SI 14540 SI SI1 14540 1.100000 28.08600
14541 SI 14541 SI SI1 14541 1.100000 28.08600
14542 SI 14542 SI SI1 14542 1.100000 28.08600
14543 SI 14543 SI SI1 14543 1.100000 28.08600
14544 SI 14544 SI SI1 14544 1.100000 28.08600
14545 SI 14545 SI SI1 14545 1.100000 28.08600
14546 SI 14546 SI SI1 14546 1.100000 28.08600
14547 SI 14547 SI SI1 14547 1.100000 28.08600
14548 SI 14548 SI SI1 14548 1.100000 28.08600
14549 SI 14549 SI SI1 14549 1.100000 28.08600
14550 SI 14550 SI SI1 14550 1.100000 28.08600
14551 SI 14551 SI SI1 14551 1.100000 28.08600
14552 SI 14552 SI SI1 14552 1.100000 28.08600
14553 SI 14553 SI SI1 14553 1.100000 28.08600
14554 SI 14554 SI SI1 14554 1.100000 28.08600
14555 SI 14555 SI SI1 14555 1.100000 28.08600
14556 SI 14556 SI SI1 14556 1.100000 28.08600
14557 SI 14557 SI SI1 14557 1.100000 28.08600
14558 SI 14558 SI SI1 14558 1.100000 28.08600
14559 SI 14559 SI SI1 14559 1.100000 28.08600
14560 SI 14560 SI SI1 14560 1.100000 28.08600
14561 SI 14561 SI SI1 14561 1.100000 28.08600
14562 SI 14562 SI SI1 14562 1.100000 28.08600
14563 SI 14563 SI SI1 14563 1.100000 28.08600
14564 SI 14564 SI SI1 14564 1.100000 28.08600
14565 SI 14565 SI SI1 14565 1.100000 28.08600
14566 SI 14566 SI SI1 14566 1.100000 28.08600
14567 SI 14567 SI SI1 14567 1.100000 28.08600
14568 SI 14568 SI SI1 14568 1.100000 28.08600
14569 SI 14569 SI SI1 14569 1.100000 28.08600
14570 SI 14570 SI SI1 14570 1.100000 28.08600
14571 SI 14571 SI SI1 14571 1.100000 28.08600
14572 SI 14572 SI SI1 14572 1.100000 28.08600
14573 SI 14573 SI SI1 14573 1.100000 28.08600
14574 SI 14574 SI SI1 14574 1.100000 28.08600
14575 SI 14575 SI SI1 14575 1.100000 28.08600
14576 SI 14576 SI SI1 14576 1.100000 28.08600
14577 SI 14577 SI SI1 14577 1.100000 28.08600
14578 SI 14578 SI SI1 14578 1.100000 28.08600
14579 SI 14579 SI SI1 14579 1.100000 28.08600
14580 SI 14580 SI SI1 14580 1.100000 28.08600
14581 SI 14581 SI SI1 14581 1.100000 28.08600
14582 SI 14582 SI SI1 14582 1.100000 28.08600
14583 SI 14583 SI SI1 14583 1.100000 28.08600
14584 SI 14584 SI SI1 14584 1.100000 28.08600
14585 SI 14585 SI SI1 14585 1.100000 28.08600
14586 SI 14586 SI SI1 14586 1.100000 28.08600
14587 SI 14587 SI SI1 14587 1.100000 28.08600
14588 SI 14588 SI SI1 14588 1.100000 28.08600
14589 SI 14589 SI SI1 14589 1.100000 28.08600
14590 SI 14590 SI SI1 14590 1.100000 28.08600
14591 SI 14591 SI SI1 14591 1.100000 28.08600
14592 SI 14592 SI SI1 14592 1.100000 28.08600
14593 SI 14593 SI SI1 14593 1.100000 28.08600
14594 SI 14594 SI SI1 14594 1.100000 28.08600
14595 SI 14595 SI SI1 14595 1.100000 28.08600
14596 SI 14596 SI SI1 14596 1.100000 28.08600
14597 SI 14597 SI SI1 14597 1.100000 28.08600
14598 SI 14598 SI SI1 14598 1.100000 28.08600
14599 SI 14599 SI SI1 14599 1.100000 28.08600
14600 SI 14600 SI SI1 14600 1.100000 28.08600
14601 SI 14601 SI SI1 14601 1.100000 28.08600
14602 SI 14602 SI SI1 14602 1.100000 28.08600
14603 SI 14603 SI SI1 14603 1.100000 28.08600
14604 SI 14604 SI SI1 14604 1.100000 28.08600
14605 SI 14605 SI SI1 14605 1.100000 28.08600
14606 SI 14606 SI SI1 14606 1.100000 28.08600
14607 SI 14607 SI SI1 14607 1.100000 28.08600
14608 SI 14608 SI SI1 14608 1.100000 28.08600
14609 SI 14609 SI SI1 14609 1.100000 28.08600
14610 SI 14610 SI SI1 14610 1.100000 28.08600
14611 SI 14611 SI SI1 14611 1.100000 28.08600
14612 SI 14612 SI SI1 14612 1.100000 28.08600
14613 SI 14613 SI SI1 14613 1.100000 28.08600
14614 SI 14614 SI SI1 14614 1.100000 28.08600
14615 SI 14615 SI SI1 14615 1.100000 28.08600
14616 SI 14616 SI SI1 14616 1.100000 28.08600
14617 SI 14617 SI SI1 14617 1.100000 28.08600
14618 SI 14618 SI SI1 14618 1.100000 28.08600
14619 SI 14619 SI SI1 14619 1.100000 28.08600
14620 SI 14620 SI SI1 14620 1.100000 28.08600
14621 SI 14621 SI SI1 14621 1.100000 28.08600
14622 SI 14622 SI SI1 14622 1.100000 28.08600
14623 SI 14623 SI SI1 14623 1.100000 28.08600
14624 SI 14624 SI SI1 14624 1.100000 28.08600
14625 SI 14625 SI SI1 14625 1.100000 28.08600
14626 SI 14626 SI SI1 14626 1.100000 28.08600
14627 SI 14627 SI SI1 14627 1.100000 28.08600
14628 SI 14628 SI SI1 14628 1.100000 28.08600
14629 SI 14629 SI SI1 14629 1.100000 28.08600
14630 SI 14630 SI SI1 14630 1.100000 28.08600
14631 SI 14631 SI SI1 14631 1.100000 28.08600
14632 SI 14632 SI SI1 14632 1.100000 28.08600
14633 SI 14633 SI SI1 14633 1.100000 28.08600
14634 SI 14634 SI SI1 14634 1.100000 28.08600
14635 SI 14635 SI SI1 14635 1.100000 28.08600
14636 SI 14636 SI SI1 14636 1.100000 28.08600
14637 SI 14637 SI SI1 14637 1.100000 28.08600
14638 SI 14638 SI SI1 14638 1.100000 28.08600
14639 SI 14639 SI SI1 14639 1.100000 28.08600
14640 SI 14640 SI SI1 14640 1.100000 28.08600
14641 SI 14641 SI SI1 14641 1.100000 28.08600
14642 SI 14642 SI SI1 14642 1.100000 28.08600
14643 SI 14643 SI SI1 14643 1.100000 28.08600
14644 SI 14644 SI SI1 14644 1.100000 28.08600
14645 SI 14645 SI SI1 14645 1.100000 28.08600
14646 SI 14646 SI SI1 14646 1.100000 28.08600
14647 SI 14647 SI SI1 14647 1.100000 28.08600
14648 SI 14648 SI SI1 14648 1.100000 28.08600
14649 SI 14649 SI SI1 14649 1.100000 28.08600
14650 SI 14650 SI SI1 14650 1.100000 28.08600
14651 SI 14651 SI SI1 14651 1.100000 28.08600
14652 SI 14652 SI SI1 14652 1.100000 28.08600
14653 SI 14653 SI SI1 14653 1.100000 28.08600
14654 SI 14654 SI SI1 14654 1.100000 28.08600
14655 SI 14655 SI SI1 14655 1.100000 28.08600
14656 SI 14656 SI SI1 14656 1.100000 28.08600
14657 SI 14657 SI SI1 14657 1.100000 28.08600
14658 SI 14658 SI SI1 14658 1.100000 28.08600
14659 SI 14659 SI SI1 14659 1.100000 28.08600
14660 SI 14660 SI SI1 14660 1.100000 28.08600
14661 SI 14661 SI SI1 14661 1.100000 28.08600
14662 SI 14662 SI SI1 14662 1.100000 28.08600
14663 SI 14663 SI SI1 14663 1.100000 28.08600
14664 SI 14664 SI SI1 14664 1.100000 28.08600
14665 SI 14665 SI SI1 14665 1.100000 28.08600
14666 SI 14666 SI SI1 14666 1.100000 28.08600
14667 SI 14667 SI SI1 14667 1.100000 28.08600
14668 SI 14668 SI SI1 14668 1.100000 28.08600
14669 SI 14669 SI SI1 14669 1.100000 28.08600
14670 SI 14670 SI SI1 14670 1.100000 28.08600
14671 SI 14671 SI SI1 14671 1.100000 28.08600
14672 SI 14672 SI SI1 14672 1.100000 28.08600
14673 SI 14673 SI SI1 14673 1.100000 28.08600
14674 SI 14674 SI SI1 14674 1.100000 28.08600
14675 SI 14675 SI SI1 14675 1.100000 28.08600
14676 SI 14676 SI SI1 14676 1.100000 28.08600
14677 SI 14677 SI SI1 14677 1.100000 28.08600
14678 SI 14678 SI SI1 14678 1.100000 28.08600
14679 SI 14679 SI SI1 14679 1.100000 28.08600
14680 SI 14680 SI SI1 14680 1.100000 28.08600
14681 SI 14681 SI SI1 14681 1.100000 28.08600
14682 SI 14682 SI SI1 14682 1.100000 28.08600
14683 SI 14683 SI SI1 14683 1.100000 28.08600
14684 SI 14684 SI SI1 14684 1.100000 28.08600
14685 SI 14685 SI SI1 14685 1.100000 28.08600
14686 SI 14686 SI SI1 14686 1.100000 28.08600
14687 SI 14687 SI SI1 14687 1.100000 28.08600
14688 SI 14688 SI SI1 14688 1.100000 28.08600
14689 SI 14689 SI SI1 14689 1.100000 28.08600
14690 SI 14690 SI SI1 14690 1.100000 28.08600
14691 SI 14691 SI SI1 14691 1.100000 28.08600
14692 SI 14692 SI SI1 14692 1.100000 28.08600
14693 SI 14693 SI SI1 14693 1.100000 28.08600
14694 SI 14694 SI SI1 14694 1.100000 28.08600
14695 SI 14695 SI SI1 14695 1.100000 28.08600
14696 SI 14696 SI SI1 14696 1.100000 28.08600
14697 SI 14697 SI SI1 14697 1.100000 28.08600
14698 SI 14698 SI SI1 14698 1.100000 28.08600
14699 SI 14699 SI SI1 14699 1.100000 28.08600
14700 SI 14700 SI SI1 14700 1.100000 28.08600
14701 SI 14701 SI SI1 14701 1.100000 28.08600
14702 SI 14702 SI SI1 14702 1.100000 28.08600
14703 SI 14703 SI SI1 14703 1.100000 28.08600
14704 SI 14704 SI SI1 14704 1.100000 28.08600
14705 SI 14705 SI SI1 14705 1.100000 28.08600
14706 SI 14706 SI SI1 14706 1.100000 28.08600
14707 SI 14707 SI SI1 14707 1.100000 28.08600
14708 SI 14708 SI SI1 14708 1.100000 28.08600
14709 SI 14709 SI SI1 14709 1.100000 28.08600
14710 SI 14710 SI SI1 14710 1.100000 28.08600
14711 SI 14711 SI SI1 14711 1.100000 28.08600
14712 SI 14712 SI SI1 14712 1.100000 28.08600
14713 SI 14713 SI SI1 14713 1.100000 28.08600
14714 SI 14714 SI SI1 14714 1.100000 28.08600
14715 SI 14715 SI SI1 14715 1.100000 28.08600
14716 SI 14716 SI SI1 14716 1.100000 28.08600
14717 SI 14717 SI SI1 14717 1.100000 28.08600
14718 SI 14718 SI SI1 14718 1.100000 28.08600
14719 SI 14719 SI SI1 14719 1.100000 28.08600
14720 SI 14720 SI SI1 14720 1.100000 28.08600
14721 SI 14721 SI SI1 14721 1.100000 28.08600
14722 SI 14722 SI SI1 14722 1.100000 28.08600
14723 SI 14723 SI SI1 14723 1.100000 28.08600
14724 SI 14724 SI SI1 14724 1.100000 28.08600
14725 SI 14725 SI SI1 14725 1.100000 28.08600
14726 SI 14726 SI SI1 14726 1.100000 28.08600
14727 SI 14727 SI SI1 14727 1.100000 28.08600
14728 SI 14728 SI SI1 14728 1.100000 28.08600
14729 SI 14729 SI SI1 14729 1.100000 28.08600
14730 SI 14730 SI SI1 14730 1.100000 28.08600
14731 SI 14731 SI SI1 14731 1.100000 28.08600
14732 SI 14732 SI SI1 14732 1.100000 28.08600
14733 SI 14733 SI SI1 14733 1.100000 28.08600
14734 SI 14734 SI SI1 14734 1.100000 28.08600
14735 SI 14735 SI SI1 14735 1.100000 28.08600
14736 SI 14736 SI SI1 14736 1.100000 28.08600
14737 SI 14737 SI SI1 14737 1.100000 28.08600
14738 SI 14738 SI SI1 14738 1.100000 28.08600
14739 SI 14739 SI SI1 14739 1.100000 28.08600
14740 SI 14740 SI SI1 14740 1.100000 28.08600
14741 SI 14741 SI SI1 14741 1.100000 28.08600
14742 SI 14742 SI SI1 14742 1.100000 28.08600
14743 SI 14743 SI SI1 14743 1.100000 28.08600
14744 SI 14744 SI SI1 14744 1.100000 28.08600
14745 SI 14745 SI SI1 14745 1.100000 28.08600
14746 SI 14746 SI SI1 14746 1.100000 28.08600
14747 SI 14747 SI SI1 14747 1.100000 28.08600
14748 SI 14748 SI SI1 14748 1.100000 28.08600
14749 SI 14749 SI SI1 14749 1.100000 28.08600
14750 SI 14750 SI SI1 14750 1.100000 28.08600
14751 SI 14751 SI SI1 14751 1.100000 28.08600
14752 SI 14752 SI SI1 14752 1.100000 28.08600
14753 SI 14753 SI SI1 14753 1.100000 28.08600
14754 SI 14754 SI SI1 14754 1.100000 28.08600
14755 SI 14755 SI SI1 14755 1.100000 28.08600
14756 SI 14756 SI SI1 14756 1.100000 28.08600
14757 SI 14757 SI SI1 14757 1.100000 28.08600
14758 SI 14758 SI SI1 14758 1.100000 28.08600
14759 SI 14759 SI SI1 14759 1.100000 28.08600
14760 SI 14760 SI SI1 14760 1.100000 28.08600
14761 SI 14761 SI SI1 14761 1.100000 28.08600
14762 SI 14762 SI SI1 14762 1.100000 28.08600
14763 SI 14763 SI SI1 14763 1.100000 28.08600
14764 SI 14764 SI SI1 14764 1.100000 28.08600
14765 SI 14765 SI SI1 14765 1.100000 28.08600
14766 SI 14766 SI SI1 14766 1.100000 28.08600
14767 SI 14767 SI SI1 14767 1.100000 28.08600
14768 SI 14768 SI SI1 14768 1.100000 28.08600
14769 SI 14769 SI SI1 14769 1.100000 28.08600
14770 SI 14770 SI SI1 14770 1.100000 28.08600
14771 SI 14771 SI SI1 14771 1.100000 28.08600
14772 SI 14772 SI SI1 14772 1.100000 28.08600
14773 SI 14773 SI SI1 14773 1.100000 28.08600
14774 SI 14774 SI SI1 14774 1.100000 28.08600
14775 SI 14775 SI SI1 14775 1.100000 28.08600
14776 SI 14776 SI SI1 14776 1.100000 28.08600
14777 SI 14777 SI SI1 14777 1.100000 28.08600
14778 SI 14778 SI SI1 14778 1.100000 28.08600
14779 SI 14779 SI SI1 14779 1.100000 28.08600
14780 SI 14780 SI SI1 14780 1.100000 28.08600
14781 SI 14781 SI SI1 14781 1.100000 28.08600
14782 SI 14782 SI SI1 14782 1.100000 28.08600
14783 SI 14783 SI SI1 14783 1.100000 28.08600
14784 SI 14784 SI SI1 14784 1.100000 28.08600
14785 SI 14785 SI SI1 14785 1.100000 28.08600
14786 SI 14786 SI SI1 14786 1.100000 28.08600
14787 SI 14787 SI SI1 14787 1.100000 28.08600
14788 SI 14788 SI SI1 14788 1.100000 28.08600
14789 SI 14789 SI SI1 14789 1.100000 28.08600
14790 SI 14790 SI SI1 14790 1.100000 28.08600
14791 SI 14791 SI SI1 14791 1.100000 28.08600
14792 SI 14792 SI SI1 14792 1.100000 28.08600
14793 SI 14793 SI SI1 14793 1.100000 28.08600
14794 SI 14794 SI SI1 14794 1.100000 28.08600
14795 SI 14795 SI SI1 14795 1.100000 28.08600
14796 SI 14796 SI SI1 14796 1.100000 28.08600
14797 SI 14797 SI SI1 14797 1.100000 28.08600
14798 SI 14798 SI SI1 14798 1.100000 28.08600
14799 SI 14799 SI SI1 14799 1.100000 28.08600
14800 SI 14800 SI SI1 14800 1.100000 28.08600
14801 SI 14801 SI SI1 14801 1.100000 28.08600
14802 SI 14802 SI SI1 14802 1.100000 28.08600
14803 SI 14803 SI SI1 14803 1.100000 28.08600
14804 SI 14804 SI SI1 14804 1.100000 28.08600
14805 SI 14805 SI SI1 14805 1.100000 28.08600
14806 SI 14806 SI SI1 14806 1.100000 28.08600
14807 SI 14807 SI SI1 14807 1.100000 28.08600
14808 SI 14808 SI SI1 14808 1.100000 28.08600
14809 SI 14809 SI SI1 14809 1.100000 28.08600
14810 SI 14810 SI SI1 14810 1.100000 28.08600
14811 SI 14811 SI SI1 14811 1.100000 28.08600
14812 SI 14812 SI SI1 14812 1.100000 28.08600
14813 SI 14813 SI SI1 14813 1.100000 28.08600
14814 SI 14814 SI SI1 14814 1.100000 28.08600
14815 SI 14815 SI SI1 14815 1.100000 28.08600
14816 SI 14816 SI SI1 14816 1.100000 28.08600
14817 SI 14817 SI SI1 14817 1.100000 28.08600
14818 SI 14818 SI SI1 14818 1.100000 28.08600
14819 SI 14819 SI SI1 14819 1.100000 28.08600
14820 SI 14820 SI SI1 14820 1.100000 28.08600
14821 SI 14821 SI SI1 14821 1.100000 28.08600
14822 SI 14822 SI SI1 14822 1.100000 28.08600
14823 SI 14823 SI SI1 14823 1.100000 28.08600
14824 SI 14824 SI SI1 14824 1.100000 28.08600
14825 SI 14825 SI SI1 14825 1.100000 28.08600
14826 SI 14826 SI SI1 14826 1.100000 28.08600
14827 SI 14827 SI SI1 14827 1.100000 28.08600
14828 SI 14828 SI SI1 14828 1.100000 28.08600
14829 SI 14829 SI SI1 14829 1.100000 28.08600
14830 SI 14830 SI SI1 14830 1.100000 28.08600
14831 SI 14831 SI SI1 14831 1.100000 28.08600
14832 SI 14832 SI SI1 14832 1.100000 28.08600
14833 SI 14833 SI SI1 14833 1.100000 28.08600
14834 SI 14834 SI SI1 14834 1.100000 28.08600
14835 SI 14835 SI SI1 14835 1.100000 28.08600
14836 SI 14836 SI SI1 14836 1.100000 28.08600
14837 SI 14837 SI SI1 14837 1.100000 28.08600
14838 SI 14838 SI SI1 14838 1.100000 28.08600
14839 SI 14839 SI SI1 14839 1.100000 28.08600
14840 SI 14840 SI SI1 14840 1.100000 28.08600
14841 SI 14841 SI SI1 14841 1.100000 28.08600
14842 SI 14842 SI SI1 14842 1.100000 28.08600
14843 SI 14843 SI SI1 14843 1.100000 28.08600
14844 SI 14844 SI SI1 14844 1.100000 28.08600
14845 SI 14845 SI SI1 14845 1.100000 28.08600
14846 SI 14846 SI SI1 14846 1.100000 28.08600
14847 SI 14847 SI SI1 14847 1.100000 28.08600
14848 SI 14848 SI SI1 14848 1.100000 28.08600
14849 SI 14849 SI SI1 14849 1.100000 28.08600
14850 SI 14850 SI SI1 14850 1.100000 28.08600
14851 SI 14851 SI SI1 14851 1.100000 28.08600
14852 SI 14852 SI SI1 14852 1.100000 28.08600
14853 SI 14853 SI SI1 14853 1.100000 28.08600
14854 SI 14854 SI SI1 14854 1.100000 28.08600
14855 SI 14855 SI SI1 14855 1.100000 28.08600
14856 SI 14856 SI SI1 14856 1.100000 28.08600
14857 SI 14857 SI SI1 14857 1.100000 28.08600
14858 SI 14858 SI SI1 14858 1.100000 28.08600
14859 SI 14859 SI SI1 14859 1.100000 28.08600
14860 SI 14860 SI SI1 14860 1.100000 28.08600
14861 SI 14861 SI SI1 14861 1.100000 28.08600
14862 SI 14862 SI SI1 14862 1.100000 28.08600
14863 SI 14863 SI SI1 14863 1.100000 28.08600
14864 SI 14864 SI SI1 14864 1.100000 28.08600
14865 SI 14865 SI SI1 14865 1.100000 28.08600
14866 SI 14866 SI SI1 14866 1.100000 28.08600
14867 SI 14867 SI SI1 14867 1.100000 28.08600
14868 SI 14868 SI SI1 14868 1.100000 28.08600
14869 SI 14869 SI SI1 14869 1.100000 28.08600
14870 SI 14870 SI SI1 14870 1.100000 28.08600
14871 SI 14871 SI SI1 14871 1.100000 28.08600
14872 SI 14872 SI SI1 14872 1.100000 28.08600
14873 SI 14873 SI SI1 14873 1.100000 28.08600
14874 SI 14874 SI SI1 14874 1.100000 28.08600
14875 SI 14875 SI SI1 14875 1.100000 28.08600
14876 SI 14876 SI SI1 14876 1.100000 28.08600
14877 SI 14877 SI SI1 14877 1.100000 28.08600
14878 SI 14878 SI SI1 14878 1.100000 28.08600
14879 SI 14879 SI SI1 14879 1.100000 28.08600
14880 SI 14880 SI SI1 14880 1.100000 28.08600
14881 SI 14881 SI SI1 14881 1.100000 28.08600
14882 SI 14882 SI SI1 14882 1.100000 28.08600
14883 SI 14883 SI SI1 14883 1.100000 28.08600
14884 SI 14884 SI SI1 14884 1.100000 28.08600
14885 SI 14885 SI SI1 14885 1.100000 28.08600
14886 SI 14886 SI SI1 14886 1.100000 28.08600
14887 SI 14887 SI SI1 14887 1.100000 28.08600
14888 SI 14888 SI SI1 14888 1.100000 28.08600
14889 SI 14889 SI SI1 14889 1.100000 28.08600
14890 SI 14890 SI SI1 14890 1.100000 28.08600
14891 SI 14891 SI SI1 14891 1.100000 28.08600
14892 SI 14892 SI SI1 14892 1.100000 28.08600
14893 SI 14893 SI SI1 14893 1.100000 28.08600
14894 SI 14894 SI SI1 14894 1.100000 28.08600
14895 SI 14895 SI SI1 14895 1.100000 28.08600
14896 SI 14896 SI SI1 14896 1.100000 28.08600
14897 SI 14897 SI SI1 14897 1.100000 28.08600
14898 SI 14898 SI SI1 14898 1.100000 28.08600
14899 SI 14899 SI SI1 14899 1.100000 28.08600
14900 SI 14900 SI SI1 14900 1.100000 28.08600
14901 SI 14901 SI SI1 14901 1.100000 28.08600
14902 SI 14902 SI SI1 14902 1.100000 28.08600
14903 SI 14903 SI SI1 14903 1.100000 28.08600
14904 SI 14904 SI SI1 14904 1.100000 28.08600
14905 SI 14905 SI SI1 14905 1.100000 28.08600
14906 SI 14906 SI SI1 14906 1.100000 28.08600
14907 SI 14907 SI SI1 14907 1.100000 28.08600
14908 SI 14908 SI SI1 14908 1.100000 28.08600
14909 SI 14909 SI SI1 14909 1.100000 28.08600
14910 SI 14910 SI SI1 14910 1.100000 28.08600
14911 SI 14911 SI SI1 14911 1.100000 28.08600
14912 SI 14912 SI SI1 14912 1.100000 28.08600
14913 SI 14913 SI SI1 14913 1.100000 28.08600
14914 SI 14914 SI SI1 14914 1.100000 28.08600
14915 SI 14915 SI SI1 14915 1.100000 28.08600
14916 SI 14916 SI SI1 14916 1.100000 28.08600
14917 SI 14917 SI SI1 14917 1.100000 28.08600
14918 SI 14918 SI SI1 14918 1.100000 28.08600
14919 SI 14919 SI SI1 14919 1.100000 28.08600
14920 SI 14920 SI SI1 14920 1.100000 28.08600
14921 SI 14921 SI SI1 14921 1.100000 28.08600
14922 SI 14922 SI SI1 14922 1.100000 28.08600
14923 SI 14923 SI SI1 14923 1.100000 28.08600
14924 SI 14924 SI SI1 14924 1.100000 28.08600
14925 SI 14925 SI SI1 14925 1.100000 28.08600
14926 SI 14926 SI SI1 14926 1.100000 28.08600
14927 SI 14927 SI SI1 14927 1.100000 28.08600
14928 SI 14928 SI SI1 14928 1.100000 28.08600
14929 SI 14929 SI SI1 14929 1.100000 28.08600
14930 SI 14930 SI SI1 14930 1.100000 28.08600
14931 SI 14931 SI SI1 14931 1.100000 28.08600
14932 SI 14932 SI SI1 14932 1.100000 28.08600
14933 SI 14933 SI SI1 14933 1.100000 28.08600
14934 SI 14934 SI SI1 14934 1.100000 28.08600
14935 SI 14935 SI SI1 14935 1.100000 28.08600
14936 SI 14936 SI SI1 14936 1.100000 28.08600
14937 SI 14937 SI SI1 14937 1.100000 28.08600
14938 SI 14938 SI SI1 14938 1.100000 28.08600
14939 SI 14939 SI SI1 14939 1.100000 28.08600
14940 SI 14940 SI SI1 14940 1.100000 28.08600
14941 SI 14941 SI SI1 14941 1.100000 28.08600
14942 SI 14942 SI SI1 14942 1.100000 28.08600
14943 SI 14943 SI SI1 14943 1.100000 28.08600
14944 SI 14944 SI SI1 14944 1.100000 28.08600
14945 SI 14945 SI SI1 14945 1.100000 28.08600
14946 SI 14946 SI SI1 14946 1.100000 28.08600
14947 SI 14947 SI SI1 14947 1.100000 28.08600
14948 SI 14948 SI SI1 14948 1.100000 28.08600
14949 SI 14949 SI SI1 14949 1.100000 28.08600
14950 SI 14950 SI SI1 14950 1.100000 28.08600
14951 SI 14951 SI SI1 14951 1.100000 28.08600
14952 SI 14952 SI SI1 14952 1.100000 28.08600
14953 SI 14953 SI SI1 14953 1.100000 28.08600
14954 SI 14954 SI SI1 14954 1.100000 28.08600
14955 SI 14955 SI SI1 14955 1.100000 28.08600
14956 SI 14956 SI SI1 14956 1.100000 28.08600
14957 SI 14957 SI SI1 14957 1.100000 28.08600
14958 SI 14958 SI SI1 14958 1.100000 28.08600
14959 SI 14959 SI SI1 14959 1.100000 28.08600
14960 SI 14960 SI SI1 14960 1.100000 28.08600
14961 SI 14961 SI SI1 14961 1.100000 28.08600
14962 SI 14962 SI SI1 14962 1.100000 28.08600
14963 SI 14963 SI SI1 14963 1.100000 28.08600
14964 SI 14964 SI SI1 14964 1.100000 28.08600
14965 SI 14965 SI SI1 14965 1.100000 28.08600
14966 SI 14966 SI SI1 14966 1.100000 28.08600
14967 SI 14967 SI SI1 14967 1.100000 28.08600
14968 SI 14968 SI SI1 14968 1.100000 28.08600
14969 SI 14969 SI SI1 14969 1.100000 28.08600
14970 SI 14970 SI SI1 14970 1.100000 28.08600
14971 SI 14971 SI SI1 14971 1.100000 28.08600
14972 SI 14972 SI SI1 14972 1.100000 28.08600
14973 SI 14973 SI SI1 14973 1.100000 28.08600
14974 SI 14974 SI SI1 14974 1.100000 28.08600
14975 SI 14975 SI SI1 14975 1.100000 28.08600
14976 SI 14976 SI SI1 14976 1.100000 28.08600
14977 SI 14977 SI SI1 14977 1.100000 28.08600
14978 SI 14978 SI SI1 14978 1.100000 28.08600
14979 SI 14979 SI SI1 14979 1.100000 28.08600
14980 SI 14980 SI SI1 14980 1.100000 28.08600
14981 SI 14981 SI SI1 14981 1.100000 28.08600
14982 SI 14982 SI SI1 14982 1.100000 28.08600
14983 SI 14983 SI SI1 14983 1.100000 28.08600
14984 SI 14984 SI SI1 14984 1.100000 28.08600
14985 SI 14985 SI SI1 14985 1.100000 28.08600
14986 SI 14986 SI SI1 14986 1.100000 28.08600
14987 SI 14987 SI SI1 14987 1.100000 28.08600
14988 SI 14988 SI SI1 14988 1.100000 28.08600
14989 SI 14989 SI SI1 14989 1.100000 28.08600
14990 SI 14990 SI SI1 14990 1.100000 28.08600
14991 SI 14991 SI SI1 14991 1.100000 28.08600
14992 SI 14992 SI SI1 14992 1.100000 28.08600
14993 SI 14993 SI SI1 14993 1.100000 28.08600
14994 SI 14994 SI SI1 14994 1.100000 28.08600
14995 SI 14995 SI SI1 14995 1.100000 28.08600
14996 SI 14996 SI SI1 14996 1.100000 28.08600
14997 SI 14997 SI SI1 14997 1.100000 28.08600
14998 SI 14998 SI SI1 14998 1.100000 28.08600
14999 SI 14999 SI SI1 14999 1.100000 28.08600
15000 SI 15000 SI SI1 15000 1.100000 28.08600
15001 SI 15001 SI SI1 15001 1.100000 28.08600
15002 SI 15002 SI SI1 15002 1.100000 28.08600
15003 SI 15003 SI SI1 15003 1.100000 28.08600
15004 SI 15004 SI SI1 15004 1.100000 28.08600
15005 SI 15005 SI SI1 15005 1.100000 28.08600
15006 SI 15006 SI SI1 15006 1.100000 28.08600
15007 SI 15007 SI SI1 15007 1.100000 28.08600
15008 SI 15008 SI SI1 15008 1.100000 28.08600
15009 SI 15009 SI SI1 15009 1.100000 28.08600
15010 SI 15010 SI SI1 15010 1.100000 28.08600
15011 SI 15011 SI SI1 15011 1.100000 28.08600
15012 SI 15012 SI SI1 15012 1.100000 28.08600
15013 SI 15013 SI SI1 15013 1.100000 28.08600
15014 SI 15014 SI SI1 15014 1.100000 28.08600
15015 SI 15015 SI SI1 15015 1.100000 28.08600
15016 SI 15016 SI SI1 15016 1.100000 28.08600
15017 SI 15017 SI SI1 15017 1.100000 28.08600
15018 SI 15018 SI SI1 15018 1.100000 28.08600
15019 SI 15019 SI SI1 15019 1.100000 28.08600
15020 SI 15020 SI SI1 15020 1.100000 28.08600
15021 SI 15021 SI SI1 15021 1.100000 28.08600
15022 SI 15022 SI SI1 15022 1.100000 28.08600
15023 SI 15023 SI SI1 15023 1.100000 28.08600
15024 SI 15024 SI SI1 15024 1.100000 28.08600
15025 SI 15025 SI SI1 15025 1.100000 28.08600
15026 SI 15026 SI SI1 15026 1.100000 28.08600
15027 SI 15027 SI SI1 15027 1.100000 28.08600
15028 SI 15028 SI SI1 15028 1.100000 28.08600
15029 SI 15029 SI SI1 15029 1.100000 28.08600
15030 SI 15030 SI SI1 15030 1.100000 28.08600
15031 SI 15031 SI SI1 15031 1.100000 28.08600
15032 SI 15032 SI SI1 15032 1.100000 28.08600
15033 SI 15033 SI SI1 15033 1.100000 28.08600
15034 SI 15034 SI SI1 15034 1.100000 28.08600
15035 SI 15035 SI SI1 15035 1.100000 28.08600
15036 SI 15036 SI SI1 15036 1.100000 28.08600
15037 SI 15037 SI SI1 15037 1.100000 28.08600
15038 SI 15038 SI SI1 15038 1.100000 28.08600
15039 SI 15039 SI SI1 15039 1.100000 28.08600
15040 SI 15040 SI SI1 15040 1.100000 28.08600
15041 SI 15041 SI SI1 15041 1.100000 28.08600
15042 SI 15042 SI SI1 15042 1.100000 28.08600
15043 SI 15043 SI SI1 15043 1.100000 28.08600
15044 SI 15044 SI SI1 15044 1.100000 28.08600
15045 SI 15045 SI SI1 15045 1.100000 28.08600
15046 SI 15046 SI SI1 15046 1.100000 28.08600
15047 SI 15047 SI SI1 15047 1.100000 28.08600
15048 SI 15048 SI SI1 15048 1.100000 28.08600
15049 SI 15049 SI SI1 15049 1.100000 28.08600
15050 SI 15050 SI SI1 15050 1.100000 28.08600
15051 SI 15051 SI SI1 15051 1.100000 28.08600
15052 SI 15052 SI SI1 15052 1.100000 28.08600
15053 SI 15053 SI SI1 15053 1.100000 28.08600
15054 SI 15054 SI SI1 15054 1.100000 28.08600
15055 SI 15055 SI SI1 15055 1.100000 28.08600
15056 SI 15056 SI SI1 15056 1.100000 28.08600
15057 SI 15057 SI SI1 15057 1.100000 28.08600
15058 SI 15058 SI SI1 15058 1.100000 28.08600
15059 SI 15059 SI SI1 15059 1.100000 28.08600
15060 SI 15060 SI SI1 15060 1.100000 28.08600
15061 SI 15061 SI SI1 15061 1.100000 28.08600
15062 SI 15062 SI SI1 15062 1.100000 28.08600
15063 SI 15063 SI SI1 15063 1.100000 28.08600
15064 SI 15064 SI SI1 15064 1.100000 28.08600
15065 SI 15065 SI SI1 15065 1.100000 28.08600
15066 SI 15066 SI SI1 15066 1.100000 28.08600
15067 SI 15067 SI SI1 15067 1.100000 28.08600
15068 SI 15068 SI SI1 15068 1.100000 28.08600
15069 SI 15069 SI SI1 15069 1.100000 28.08600
15070 SI 15070 SI SI1 15070 1.100000 28.08600
15071 SI 15071 SI SI1 15071 1.100000 28.08600
15072 SI 15072 SI SI1 15072 1.100000 28.08600
15073 SI 15073 SI SI1 15073 1.100000 28.08600
15074 SI 15074 SI SI1 15074 1.100000 28.08600
15075 SI 15075 SI SI1 15075 1.100000 28.08600
15076 SI 15076 SI SI1 15076 1.100000 28.08600
15077 SI 15077 SI SI1 15077 1.100000 28.08600
15078 SI 15078 SI SI1 15078 1.100000 28.08600
15079 SI 15079 SI SI1 15079 1.100000 28.08600
15080 SI 15080 SI SI1 15080 1.100000 28.08600
15081 SI 15081 SI SI1 15081 1.100000 28.08600
15082 SI 15082 SI SI1 15082 1.100000 28.08600
15083 SI 15083 SI SI1 15083 1.100000 28.08600
15084 SI 15084 SI SI1 15084 1.100000 28.08600
15085 SI 15085 SI SI1 15085 1.100000 28.08600
15086 SI 15086 SI SI1 15086 1.100000 28.08600
15087 SI 15087 SI SI1 15087 1.100000 28.08600
15088 SI 15088 SI SI1 15088 1.100000 28.08600
15089 SI 15089 SI SI1 15089 1.100000 28.08600
15090 SI 15090 SI SI1 15090 1.100000 28.08600
15091 SI 15091 SI SI1 15091 1.100000 28.08600
15092 SI 15092 SI SI1 15092 1.100000 28.08600
15093 SI 15093 SI SI1 15093 1.100000 28.08600
15094 SI 15094 SI SI1 15094 1.100000 28.08600
15095 SI 15095 SI SI1 15095 1.100000 28.08600
15096 SI 15096 SI SI1 15096 1.100000 28.08600
15097 SI 15097 SI SI1 15097 1.100000 28.08600
15098 SI 15098 SI SI1 15098 1.100000 28.08600
15099 SI 15099 SI SI1 15099 1.100000 28.08600
15100 SI 15100 SI SI1 15100 1.100000 28.08600
15101 SI 15101 SI SI1 15101 1.100000 28.08600
15102 SI 15102 SI SI1 15102 1.100000 28.08600
15103 SI 15103 SI SI1 15103 1.100000 28.08600
15104 SI 15104 SI SI1 15104 1.100000 28.08600
15105 SI 15105 SI SI1 15105 1.100000 28.08600
15106 SI 15106 SI SI1 15106 1.100000 28.08600
15107 SI 15107 SI SI1 15107 1.100000 28.08600
15108 SI 15108 SI SI1 15108 1.100000 28.08600
15109 SI 15109 SI SI1 15109 1.100000 28.08600
15110 SI 15110 SI SI1 15110 1.100000 28.08600
15111 SI 15111 SI SI1 15111 1.100000 28.08600
15112 SI 15112 SI SI1 15112 1.100000 28.08600
15113 SI 15113 SI SI1 15113 1.100000 28.08600
15114 SI 15114 SI SI1 15114 1.100000 28.08600
15115 SI 15115 SI SI1 15115 1.100000 28.08600
15116 SI 15116 SI SI1 15116 1.100000 28.08600
15117 SI 15117 SI SI1 15117 1.100000 28.08600
15118 SI 15118 SI SI1 15118 1.100000 28.08600
15119 SI 15119 SI SI1 15119 1.100000 28.08600
15120 SI 15120 SI SI1 15120 1.100000 28.08600
15121 SI 15121 SI SI1 15121 1.100000 28.08600
15122 SI 15122 SI SI1 15122 1.100000 28.08600
15123 SI 15123 SI SI1 15123 1.100000 28.08600
15124 SI 15124 SI SI1 15124 1.100000 28.08600
15125 SI 15125 SI SI1 15125 1.100000 28.08600
15126 SI 15126 SI SI1 15126 1.100000 28.08600
15127 SI 15127 SI SI1 15127 1.100000 28.08600
15128 SI 15128 SI SI1 15128 1.100000 28.08600
15129 SI 15129 SI SI1 15129 1.100000 28.08600
15130 SI 15130 SI SI1 15130 1.100000 28.08600
15131 SI 15131 SI SI1 15131 1.100000 28.08600
15132 SI 15132 SI SI1 15132 1.100000 28.08600
15133 SI 15133 SI SI1 15133 1.100000 28.08600
15134 SI 15134 SI SI1 15134 1.100000 28.08600
15135 SI 15135 SI SI1 15135 1.100000 28.08600
15136 SI 15136 SI SI1 15136 1.100000 28.08600
15137 SI 15137 SI SI1 15137 1.100000 28.08600
15138 SI 15138 SI SI1 15138 1.100000 28.08600
15139 SI 15139 SI SI1 15139 1.100000 28.08600
15140 SI 15140 SI SI1 15140 1.100000 28.08600
15141 SI 15141 SI SI1 15141 1.100000 28.08600
15142 SI 15142 SI SI1 15142 1.100000 28.08600
15143 SI 15143 SI SI1 15143 1.100000 28.08600
15144 SI 15144 SI SI1 15144 1.100000 28.08600
15145 SI 15145 SI SI1 15145 1.100000 28.08600
15146 SI 15146 SI SI1 15146 1.100000 28.08600
15147 SI 15147 SI SI1 15147 1.100000 28.08600
15148 SI 15148 SI SI1 15148 1.100000 28.08600
15149 SI 15149 SI SI1 15149 1.100000 28.08600
15150 SI 15150 SI SI1 15150 1.100000 28.08600
15151 SI 15151 SI SI1 15151 1.100000 28.08600
15152 SI 15152 SI SI1 15152 1.100000 28.08600
15153 SI 15153 SI SI1 15153 1.100000 28.08600
15154 SI 15154 SI SI1 15154 1.100000 28.08600
15155 SI 15155 SI SI1 15155 1.100000 28.08600
15156 SI 15156 SI SI1 15156 1.100000 28.08600
15157 SI 15157 SI SI1 15157 1.100000 28.08600
15158 SI 15158 SI SI1 15158 1.100000 28.08600
15159 SI 15159 SI SI1 15159 1.100000 28.08600
15160 SI 15160 SI SI1 15160 1.100000 28.08600
15161 SI 15161 SI SI1 15161 1.100000 28.08600
15162 SI 15162 SI SI1 15162 1.100000 28.08600
15163 SI 15163 SI SI1 15163 1.100000 28.08600
15164 SI 15164 SI SI1 15164 1.100000 28.08600
15165 SI 15165 SI SI1 15165 1.100000 28.08600
15166 SI 15166 SI SI1 15166 1.100000 28.08600
15167 SI 15167 SI SI1 15167 1.100000 28.08600
15168 SI 15168 SI SI1 15168 1.100000 28.08600
15169 SI 15169 SI SI1 15169 1.100000 28.08600
15170 SI 15170 SI SI1 15170 1.100000 28.08600
15171 SI 15171 SI SI1 15171 1.100000 28.08600
15172 SI 15172 SI SI1 15172 1.100000 28.08600
15173 SI 15173 SI SI1 15173 1.100000 28.08600
15174 SI 15174 SI SI1 15174 1.100000 28.08600
15175 SI 15175 SI SI1 15175 1.100000 28.08600
15176 SI 15176 SI SI1 15176 1.100000 28.08600
15177 SI 15177 SI SI1 15177 1.100000 28.08600
15178 SI 15178 SI SI1 15178 1.100000 28.08600
15179 SI 15179 SI SI1 15179 1.100000 28.08600
15180 SI 15180 SI SI1 15180 1.100000 28.08600
15181 SI 15181 SI SI1 15181 1.100000 28.08600
15182 SI 15182 SI SI1 15182 1.100000 28.08600
15183 SI 15183 SI SI1 15183 1.100000 28.08600
15184 SI 15184 SI SI1 15184 1.100000 28.08600
15185 SI 15185 SI SI1 15185 1.100000 28.08600
15186 SI 15186 SI SI1 15186 1.100000 28.08600
15187 SI 15187 SI SI1 15187 1.100000 28.08600
15188 SI 15188 SI SI1 15188 1.100000 28.08600
15189 SI 15189 SI SI1 15189 1.100000 28.08600
15190 SI 15190 SI SI1 15190 1.100000 28.08600
15191 SI 15191 SI SI1 15191 1.100000 28.08600
15192 SI 15192 SI SI1 15192 1.100000 28.08600
15193 SI 15193 SI SI1 15193 1.100000 28.08600
15194 SI 15194 SI SI1 15194 1.100000 28.08600
15195 SI 15195 SI SI1 15195 1.100000 28.08600
15196 SI 15196 SI SI1 15196 1.100000 28.08600
15197 SI 15197 SI SI1 15197 1.100000 28.08600
15198 SI 15198 SI SI1 15198 1.100000 28.08600
15199 SI 15199 SI SI1 15199 1.100000 28.08600
15200 SI 15200 SI SI1 15200 1.100000 28.08600
15201 SI 15201 SI SI1 15201 1.100000 28.08600
15202 SI 15202 SI SI1 15202 1.100000 28.08600
15203 SI 15203 SI SI1 15203 1.100000 28.08600
15204 SI 15204 SI SI1 15204 1.100000 28.08600
15205 SI 15205 SI SI1 15205 1.100000 28.08600
15206 SI 15206 SI SI1 15206 1.100000 28.08600
15207 SI 15207 SI SI1 15207 1.100000 28.08600
15208 SI 15208 SI SI1 15208 1.100000 28.08600
15209 SI 15209 SI SI1 15209 1.100000 28.08600
15210 SI 15210 SI SI1 15210 1.100000 28.08600
15211 SI 15211 SI SI1 15211 1.100000 28.08600
15212 SI 15212 SI SI1 15212 1.100000 28.08600
15213 SI 15213 SI SI1 15213 1.100000 28.08600
15214 SI 15214 SI SI1 15214 1.100000 28.08600
15215 SI 15215 SI SI1 15215 1.100000 28.08600
15216 SI 15216 SI SI1 15216 1.100000 28.08600
15217 SI 15217 SI SI1 15217 1.100000 28.08600
15218 SI 15218 SI SI1 15218 1.100000 28.08600
15219 SI 15219 SI SI1 15219 1.100000 28.08600
15220 SI 15220 SI SI1 15220 1.100000 28.08600
15221 SI 15221 SI SI1 15221 1.100000 28.08600
15222 SI 15222 SI SI1 15222 1.100000 28.08600
15223 SI 15223 SI SI1 15223 1.100000 28.08600
15224 SI 15224 SI SI1 15224 1.100000 28.08600
15225 SI 15225 SI SI1 15225 1.100000 28.08600
15226 SI 15226 SI SI1 15226 1.100000 28.08600
15227 SI 15227 SI SI1 15227 1.100000 28.08600
15228 SI 15228 SI SI1 15228 1.100000 28.08600
15229 SI 15229 SI SI1 15229 1.100000 28.08600
15230 SI 15230 SI SI1 15230 1.100000 28.08600
15231 SI 15231 SI SI1 15231 1.100000 28.08600
15232 SI 15232 SI SI1 15232 1.100000 28.08600
15233 SI 15233 SI SI1 15233 1.100000 28.08600
15234 SI 15234 SI SI1 15234 1.100000 28.08600
15235 SI 15235 SI SI1 15235 1.100000 28.08600
15236 SI 15236 SI SI1 15236 1.100000 28.08600
15237 SI 15237 SI SI1 15237 1.100000 28.08600
15238 SI 15238 SI SI1 15238 1.100000 28.08600
15239 SI 15239 SI SI1 15239 1.100000 28.08600
15240 SI 15240 SI SI1 15240 1.100000 28.08600
15241 SI 15241 SI SI1 15241 1.100000 28.08600
15242 SI 15242 SI SI1 15242 1.100000 28.08600
15243 SI 15243 SI SI1 15243 1.100000 28.08600
15244 SI 15244 SI SI1 15244 1.100000 28.08600
15245 SI 15245 SI SI1 15245 1.100000 28.08600
15246 SI 15246 SI SI1 15246 1.100000 28.08600
15247 SI 15247 SI SI1 15247 1.100000 28.08600
15248 SI 15248 SI SI1 15248 1.100000 28.08600
15249 SI 15249 SI SI1 15249 1.100000 28.08600
15250 SI 15250 SI SI1 15250 1.100000 28.08600
15251 SI 15251 SI SI1 15251 1.100000 28.08600
15252 SI 15252 SI SI1 15252 1.100000 28.08600
15253 SI 15253 SI SI1 15253 1.100000 28.08600
15254 SI 15254 SI SI1 15254 1.100000 28.08600
15255 SI 15255 SI SI1 15255 1.100000 28.08600
15256 SI 15256 SI SI1 15256 1.100000 28.08600
15257 SI 15257 SI SI1 15257 1.100000 28.08600
15258 SI 15258 SI SI1 15258 1.100000 28.08600
15259 SI 15259 SI SI1 15259 1.100000 28.08600
15260 SI 15260 SI SI1 15260 1.100000 28.08600
15261 SI 15261 SI SI1 15261 1.100000 28.08600
15262 SI 15262 SI SI1 15262 1.100000 28.08600
15263 SI 15263 SI SI1 15263 1.100000 28.08600
15264 SI 15264 SI SI1 15264 1.100000 28.08600
15265 SI 15265 SI SI1 15265 1.100000 28.08600
15266 SI 15266 SI SI1 15266 1.100000 28.08600
15267 SI 15267 SI SI1 15267 1.100000 28.08600
15268 SI 15268 SI SI1 15268 1.100000 28.08600
15269 SI 15269 SI SI1 15269 1.100000 28.08600
15270 SI 15270 SI SI1 15270 1.100000 28.08600
15271 SI 15271 SI SI1 15271 1.100000 28.08600
15272 SI 15272 SI SI1 15272 1.100000 28.08600
15273 SI 15273 SI SI1 15273 1.100000 28.08600
15274 SI 15274 SI SI1 15274 1.100000 28.08600
15275 SI 15275 SI SI1 15275 1.100000 28.08600
15276 SI 15276 SI SI1 15276 1.100000 28.08600
15277 SI 15277 SI SI1 15277 1.100000 28.08600
15278 SI 15278 SI SI1 15278 1.100000 28.08600
15279 SI 15279 SI SI1 15279 1.100000 28.08600
15280 SI 15280 SI SI1 15280 1.100000 28.08600
15281 SI 15281 SI SI1 15281 1.100000 28.08600
15282 SI 15282 SI SI1 15282 1.100000 28.08600
15283 SI 15283 SI SI1 15283 1.100000 28.08600
15284 SI 15284 SI SI1 15284 1.100000 28.08600
15285 SI 15285 SI SI1 15285 1.100000 28.08600
15286 SI 15286 SI SI1 15286 1.100000 28.08600
15287 SI 15287 SI SI1 15287 1.100000 28.08600
15288 SI 15288 SI SI1 15288 1.100000 28.08600
15289 SI 15289 SI SI1 15289 1.100000 28.08600
15290 SI 15290 SI SI1 15290 1.100000 28.08600
15291 SI 15291 SI SI1 15291 1.100000 28.08600
15292 SI 15292 SI SI1 15292 1.100000 28.08600
15293 SI 15293 SI SI1 15293 1.100000 28.08600
15294 SI 15294 SI SI1 15294 1.100000 28.08600
15295 SI 15295 SI SI1 15295 1.100000 28.08600
15296 SI 15296 SI SI1 15296 1.100000 28.08600
15297 SI 15297 SI SI1 15297 1.100000 28.08600
15298 SI 15298 SI SI1 15298 1.100000 28.08600
15299 SI 15299 SI SI1 15299 1.100000 28.08600
15300 SI 15300 SI SI1 15300 1.100000 28.08600
15301 SI 15301 SI SI1 15301 1.100000 28.08600
15302 SI 15302 SI SI1 15302 1.100000 28.08600
15303 SI 15303 SI SI1 15303 1.100000 28.08600
15304 SI 15304 SI SI1 15304 1.100000 28.08600
15305 SI 15305 SI SI1 15305 1.100000 28.08600
15306 SI 15306 SI SI1 15306 1.100000 28.08600
15307 SI 15307 SI SI1 15307 1.100000 28.08600
15308 SI 15308 SI SI1 15308 1.100000 28.08600
15309 SI 15309 SI SI1 15309 1.100000 28.08600
15310 SI 15310 SI SI1 15310 1.100000 28.08600
15311 SI 15311 SI SI1 15311 1.100000 28.08600
15312 SI 15312 SI SI1 15312 1.100000 28.08600
15313 SI 15313 SI SI1 15313 1.100000 28.08600
15314 SI 15314 SI SI1 15314 1.100000 28.08600
15315 SI 15315 SI SI1 15315 1.100000 28.08600
15316 SI 15316 SI SI1 15316 1.100000 28.08600
15317 SI 15317 SI SI1 15317 1.100000 28.08600
15318 SI 15318 SI SI1 15318 1.100000 28.08600
15319 SI 15319 SI SI1 15319 1.100000 28.08600
15320 SI 15320 SI SI1 15320 1.100000 28.08600
15321 SI 15321 SI SI1 15321 1.100000 28.08600
15322 SI 15322 SI SI1 15322 1.100000 28.08600
15323 SI 15323 SI SI1 15323 1.100000 28.08600
15324 SI 15324 SI SI1 15324 1.100000 28.08600
15325 SI 15325 SI SI1 15325 1.100000 28.08600
15326 SI 15326 SI SI1 15326 1.100000 28.08600
15327 SI 15327 SI SI1 15327 1.100000 28.08600
15328 SI 15328 SI SI1 15328 1.100000 28.08600
15329 SI 15329 SI SI1 15329 1.100000 28.08600
15330 SI 15330 SI SI1 15330 1.100000 28.08600
15331 SI 15331 SI SI1 15331 1.100000 28.08600
15332 SI 15332 SI SI1 15332 1.100000 28.08600
15333 SI 15333 SI SI1 15333 1.100000 28.08600
15334 SI 15334 SI SI1 15334 1.100000 28.08600
15335 SI 15335 SI SI1 15335 1.100000 28.08600
15336 SI 15336 SI SI1 15336 1.100000 28.08600
15337 SI 15337 SI SI1 15337 1.100000 28.08600
15338 SI 15338 SI SI1 15338 1.100000 28.08600
15339 SI 15339 SI SI1 15339 1.100000 28.08600
15340 SI 15340 SI SI1 15340 1.100000 28.08600
15341 SI 15341 SI SI1 15341 1.100000 28.08600
15342 SI 15342 SI SI1 15342 1.100000 28.08600
15343 SI 15343 SI SI1 15343 1.100000 28.08600
15344 SI 15344 SI SI1 15344 1.100000 28.08600
15345 SI 15345 SI SI1 15345 1.100000 28.08600
15346 SI 15346 SI SI1 15346 1.100000 28.08600
15347 SI 15347 SI SI1 15347 1.100000 28.08600
15348 SI 15348 SI SI1 15348 1.100000 28.08600
15349 SI 15349 SI SI1 15349 1.100000 28.08600
15350 SI 15350 SI SI1 15350 1.100000 28.08600
15351 SI 15351 SI SI1 15351 1.100000 28.08600
15352 SI 15352 SI SI1 15352 1.100000 28.08600
15353 SI 15353 SI SI1 15353 1.100000 28.08600
15354 SI 15354 SI SI1 15354 1.100000 28.08600
15355 SI 15355 SI SI1 15355 1.100000 28.08600
15356 SI 15356 SI SI1 15356 1.100000 28.08600
15357 SI 15357 SI SI1 15357 1.100000 28.08600
15358 SI 15358 SI SI1 15358 1.100000 28.08600
15359 SI 15359 SI SI1 15359 1.100000 28.08600
15360 SI 15360 SI SI1 15360 1.100000 28.08600
15361 SI 15361 SI SI1 15361 1.100000 28.08600
15362 SI 15362 SI SI1 15362 1.100000 28.08600
15363 SI 15363 SI SI1 15363 1.100000 28.08600
15364 SI 15364 SI SI1 15364 1.100000 28.08600
15365 SI 15365 SI SI1 15365 1.100000 28.08600
15366 SI 15366 SI SI1 15366 1.100000 28.08600
15367 SI 15367 SI SI1 15367 1.100000 28.08600
15368 SI 15368 SI SI1 15368 1.100000 28.08600
15369 SI 15369 SI SI1 15369 1.100000 28.08600
15370 SI 15370 SI SI1 15370 1.100000 28.08600
15371 SI 15371 SI SI1 15371 1.100000 28.08600
15372 SI 15372 SI SI1 15372 1.100000 28.08600
15373 SI 15373 SI SI1 15373 1.100000 28.08600
15374 SI 15374 SI SI1 15374 1.100000 28.08600
15375 SI 15375 SI SI1 15375 1.100000 28.08600
15376 SI 15376 SI SI1 15376 1.100000 28.08600
15377 SI 15377 SI SI1 15377 1.100000 28.08600
15378 SI 15378 SI SI1 15378 1.100000 28.08600
15379 SI 15379 SI SI1 15379 1.100000 28.08600
15380 SI 15380 SI SI1 15380 1.100000 28.08600
15381 SI 15381 SI SI1 15381 1.100000 28.08600
15382 SI 15382 SI SI1 15382 1.100000 28.08600
15383 SI 15383 SI SI1 15383 1.100000 28.08600
15384 SI 15384 SI SI1 15384 1.100000 28.08600
15385 SI 15385 SI SI1 15385 1.100000 28.08600
15386 SI 15386 SI SI1 15386 1.100000 28.08600
15387 SI 15387 SI SI1 15387 1.100000 28.08600
15388 SI 15388 SI SI1 15388 1.100000 28.08600
15389 SI 15389 SI SI1 15389 1.100000 28.08600
15390 SI 15390 SI SI1 15390 1.100000 28.08600
15391 SI 15391 SI SI1 15391 1.100000 28.08600
15392 SI 15392 SI SI1 15392 1.100000 28.08600
15393 SI 15393 SI SI1 15393 1.100000 28.08600
15394 SI 15394 SI SI1 15394 1.100000 28.08600
15395 SI 15395 SI SI1 15395 1.100000 28.08600
15396 SI 15396 SI SI1 15396 1.100000 28.08600
15397 SI 15397 SI SI1 15397 1.100000 28.08600
15398 SI 15398 SI SI1 15398 1.100000 28.08600
15399 SI 15399 SI SI1 15399 1.100000 28.08600
15400 SI 15400 SI SI1 15400 1.100000 28.08600
15401 SI 15401 SI SI1 15401 1.100000 28.08600
15402 SI 15402 SI SI1 15402 1.100000 28.08600
15403 SI 15403 SI SI1 15403 1.100000 28.08600
15404 SI 15404 SI SI1 15404 1.100000 28.08600
15405 SI 15405 SI SI1 15405 1.100000 28.08600
15406 SI 15406 SI SI1 15406 1.100000 28.08600
15407 SI 15407 SI SI1 15407 1.100000 28.08600
15408 SI 15408 SI SI1 15408 1.100000 28.08600
15409 SI 15409 SI SI1 15409 1.100000 28.08600
15410 SI 15410 SI SI1 15410 1.100000 28.08600
15411 SI 15411 SI SI1 15411 1.100000 28.08600
15412 SI 15412 SI SI1 15412 1.100000 28.08600
15413 SI 15413 SI SI1 15413 1.100000 28.08600
15414 SI 15414 SI SI1 15414 1.100000 28.08600
15415 SI 15415 SI SI1 15415 1.100000 28.08600
15416 SI 15416 SI SI1 15416 1.100000 28.08600
15417 SI 15417 SI SI1 15417 1.100000 28.08600
15418 SI 15418 SI SI1 15418 1.100000 28.08600
15419 SI 15419 SI SI1 15419 1.100000 28.08600
15420 SI 15420 SI SI1 15420 1.100000 28.08600
15421 SI 15421 SI SI1 15421 1.100000 28.08600
15422 SI 15422 SI SI1 15422 1.100000 28.08600
15423 SI 15423 SI SI1 15423 1.100000 28.08600
15424 SI 15424 SI SI1 15424 1.100000 28.08600
15425 SI 15425 SI SI1 15425 1.100000 28.08600
15426 SI 15426 SI SI1 15426 1.100000 28.08600
15427 SI 15427 SI SI1 15427 1.100000 28.08600
15428 SI 15428 SI SI1 15428 1.100000 28.08600
15429 SI 15429 SI SI1 15429 1.100000 28.08600
15430 SI 15430 SI SI1 15430 1.100000 28.08600
15431 SI 15431 SI SI1 15431 1.100000 28.08600
15432 SI 15432 SI SI1 15432 1.100000 28.08600
15433 SI 15433 SI SI1 15433 1.100000 28.08600
15434 SI 15434 SI SI1 15434 1.100000 28.08600
15435 SI 15435 SI SI1 15435 1.100000 28.08600
15436 SI 15436 SI SI1 15436 1.100000 28.08600
15437 SI 15437 SI SI1 15437 1.100000 28.08600
15438 SI 15438 SI SI1 15438 1.100000 28.08600
15439 SI 15439 SI SI1 15439 1.100000 28.08600
15440 SI 15440 SI SI1 15440 1.100000 28.08600
15441 SI 15441 SI SI1 15441 1.100000 28.08600
15442 SI 15442 SI SI1 15442 1.100000 28.08600
15443 SI 15443 SI SI1 15443 1.100000 28.08600
15444 SI 15444 SI SI1 15444 1.100000 28.08600
15445 SI 15445 SI SI1 15445 1.100000 28.08600
15446 SI 15446 SI SI1 15446 1.100000 28.08600
15447 SI 15447 SI SI1 15447 1.100000 28.08600
15448 SI 15448 SI SI1 15448 1.100000 28.08600
15449 SI 15449 SI SI1 15449 1.100000 28.08600
15450 SI 15450 SI SI1 15450 1.100000 28.08600
15451 SI 15451 SI SI1 15451 1.100000 28.08600
15452 SI 15452 SI SI1 15452 1.100000 28.08600
15453 SI 15453 SI SI1 15453 1.100000 28.08600
15454 SI 15454 SI SI1 15454 1.100000 28.08600
15455 SI 15455 SI SI1 15455 1.100000 28.08600
15456 SI 15456 SI SI1 15456 1.100000 28.08600
15457 SI 15457 SI SI1 15457 1.100000 28.08600
15458 SI 15458 SI SI1 15458 1.100000 28.08600
15459 SI 15459 SI SI1 15459 1.100000 28.08600
15460 SI 15460 SI SI1 15460 1.100000 28.08600
15461 SI 15461 SI SI1 15461 1.100000 28.08600
15462 SI 15462 SI SI1 15462 1.100000 28.08600
15463 SI 15463 SI SI1 15463 1.100000 28.08600
15464 SI 15464 SI SI1 15464 1.100000 28.08600
15465 SI 15465 SI SI1 15465 1.100000 28.08600
15466 SI 15466 SI SI1 15466 1.100000 28.08600
15467 SI 15467 SI SI1 15467 1.100000 28.08600
15468 SI 15468 SI SI1 15468 1.100000 28.08600
15469 SI 15469 SI SI1 15469 1.100000 28.08600
15470 SI 15470 SI SI1 15470 1.100000 28.08600
15471 SI 15471 SI SI1 15471 1.100000 28.08600
15472 SI 15472 SI SI1 15472 1.100000 28.08600
15473 SI 15473 SI SI1 15473 1.100000 28.08600
15474 SI 15474 SI SI1 15474 1.100000 28.08600
15475 SI 15475 SI SI1 15475 1.100000 28.08600
15476 SI 15476 SI SI1 15476 1.100000 28.08600
15477 SI 15477 SI SI1 15477 1.100000 28.08600
15478 SI 15478 SI SI1 15478 1.100000 28.08600
15479 SI 15479 SI SI1 15479 1.100000 28.08600
15480 SI 15480 SI SI1 15480 1.100000 28.08600
15481 SI 15481 SI SI1 15481 1.100000 28.08600
15482 SI 15482 SI SI1 15482 1.100000 28.08600
15483 SI 15483 SI SI1 15483 1.100000 28.08600
15484 SI 15484 SI SI1 15484 1.100000 28.08600
15485 SI 15485 SI SI1 15485 1.100000 28.08600
15486 SI 15486 SI SI1 15486 1.100000 28.08600
15487 SI 15487 SI SI1 15487 1.100000 28.08600
15488 SI 15488 SI SI1 15488 1.100000 28.08600
15489 SI 15489 SI SI1 15489 1.100000 28.08600
15490 SI 15490 SI SI1 15490 1.100000 28.08600
15491 SI 15491 SI SI1 15491 1.100000 28.08600
15492 SI 15492 SI SI1 15492 1.100000 28.08600
15493 SI 15493 SI SI1 15493 1.100000 28.08600
15494 SI 15494 SI SI1 15494 1.100000 28.08600
15495 SI 15495 SI SI1 15495 1.100000 28.08600
15496 SI 15496 SI SI1 15496 1.100000 28.08600
15497 SI 15497 SI SI1 15497 1.100000 28.08600
15498 SI 15498 SI SI1 15498 1.100000 28.08600
15499 SI 15499 SI SI1 15499 1.100000 28.08600
15500 SI 15500 SI SI1 15500 1.100000 28.08600
15501 SI 15501 SI SI1 15501 1.100000 28.08600
15502 SI 15502 SI SI1 15502 1.100000 28.08600
15503 SI 15503 SI SI1 15503 1.100000 28.08600
15504 SI 15504 SI SI1 15504 1.100000 28.08600
15505 SI 15505 SI SI1 15505 1.100000 28.08600
15506 SI 15506 SI SI1 15506 1.100000 28.08600
15507 SI 15507 SI SI1 15507 1.100000 28.08600
15508 SI 15508 SI SI1 15508 1.100000 28.08600
15509 SI 15509 SI SI1 15509 1.100000 28.08600
15510 SI 15510 SI SI1 15510 1.100000 28.08600
15511 SI 15511 SI SI1 15511 1.100000 28.08600
15512 SI 15512 SI SI1 15512 1.100000 28.08600
15513 SI 15513 SI SI1 15513 1.100000 28.08600
15514 SI 15514 SI SI1 15514 1.100000 28.08600
15515 SI 15515 SI SI1 15515 1.100000 28.08600
15516 SI 15516 SI SI1 15516 1.100000 28.08600
15517 SI 15517 SI SI1 15517 1.100000 28.08600
15518 SI 15518 SI SI1 15518 1.100000 28.08600
15519 SI 15519 SI SI1 15519 1.100000 28.08600
15520 SI 15520 SI SI1 15520 1.100000 28.08600
15521 SI 15521 SI SI1 15521 1.100000 28.08600
15522 SI 15522 SI SI1 15522 1.100000 28.08600
15523 SI 15523 SI SI1 15523 1.100000 28.08600
15524 SI 15524 SI SI1 15524 1.100000 28.08600
15525 SI 15525 SI SI1 15525 1.100000 28.08600
15526 SI 15526 SI SI1 15526 1.100000 28.08600
15527 SI 15527 SI SI1 15527 1.100000 28.08600
15528 SI 15528 SI SI1 15528 1.100000 28.08600
15529 SI 15529 SI SI1 15529 1.100000 28.08600
15530 SI 15530 SI SI1 15530 1.100000 28.08600
15531 SI 15531 SI SI1 15531 1.100000 28.08600
15532 SI 15532 SI SI1 15532 1.100000 28.08600
15533 SI 15533 SI SI1 15533 1.100000 28.08600
15534 SI 15534 SI SI1 15534 1.100000 28.08600
15535 SI 15535 SI SI1 15535 1.100000 28.08600
15536 SI 15536 SI SI1 15536 1.100000 28.08600
15537 SI 15537 SI SI1 15537 1.100000 28.08600
15538 SI 15538 SI SI1 15538 1.100000 28.08600
15539 SI 15539 SI SI1 15539 1.100000 28.08600
15540 SI 15540 SI SI1 15540 1.100000 28.08600
15541 SI 15541 SI SI1 15541 1.100000 28.08600
15542 SI 15542 SI SI1 15542 1.100000 28.08600
15543 SI 15543 SI SI1 15543 1.100000 28.08600
15544 SI 15544 SI SI1 15544 1.100000 28.08600
15545 SI 15545 SI SI1 15545 1.100000 28.08600
15546 SI 15546 SI SI1 15546 1.100000 28.08600
15547 SI 15547 SI SI1 15547 1.100000 28.08600
15548 SI 15548 SI SI1 15548 1.100000 28.08600
15549 SI 15549 SI SI1 15549 1.100000 28.08600
15550 SI 15550 SI SI1 15550 1.100000 28.08600
15551 SI 15551 SI SI1 15551 1.100000 28.08600
15552 SI 15552 SI SI1 15552 1.100000 28.08600
15553 SI 15553 SI SI1 15553 1.100000 28.08600
15554 SI 15554 SI SI1 15554 1.100000 28.08600
15555 SI 15555 SI SI1 15555 1.100000 28.08600
15556 SI 15556 SI SI1 15556 1.100000 28.08600
15557 SI 15557 SI SI1 15557 1.100000 28.08600
15558 SI 15558 SI SI1 15558 1.100000 28.08600
15559 SI 15559 SI SI1 15559 1.100000 28.08600
15560 SI 15560 SI SI1 15560 1.100000 28.08600
15561 SI 15561 SI SI1 15561 1.100000 28.08600
15562 SI 15562 SI SI1 15562 1.100000 28.08600
15563 SI 15563 SI SI1 15563 1.100000 28.08600
15564 SI 15564 SI SI1 15564 1.100000 28.08600
15565 SI 15565 SI SI1 15565 1.100000 28.08600
15566 SI 15566 SI SI1 15566 1.100000 28.08600
15567 SI 15567 SI SI1 15567 1.100000 28.08600
15568 SI 15568 SI SI1 15568 1.100000 28.08600
15569 SI 15569 SI SI1 15569 1.100000 28.08600
15570 SI 15570 SI SI1 15570 1.100000 28.08600
15571 SI 15571 SI SI1 15571 1.100000 28.08600
15572 SI 15572 SI SI1 15572 1.100000 28.08600
15573 SI 15573 SI SI1 15573 1.100000 28.08600
15574 SI 15574 SI SI1 15574 1.100000 28.08600
15575 SI 15575 SI SI1 15575 1.100000 28.08600
15576 SI 15576 SI SI1 15576 1.100000 28.08600
15577 SI 15577 SI SI1 15577 1.100000 28.08600
15578 SI 15578 SI SI1 15578 1.100000 28.08600
15579 SI 15579 SI SI1 15579 1.100000 28.08600
15580 SI 15580 SI SI1 15580 1.100000 28.08600
15581 SI 15581 SI SI1 15581 1.100000 28.08600
15582 SI 15582 SI SI1 15582 1.100000 28.08600
15583 SI 15583 SI SI1 15583 1.100000 28.08600
15584 SI 15584 SI SI1 15584 1.100000 28.08600
15585 SI 15585 SI SI1 15585 1.100000 28.08600
15586 SI 15586 SI SI1 15586 1.100000 28.08600
15587 SI 15587 SI SI1 15587 1.100000 28.08600
15588 SI 15588 SI SI1 15588 1.100000 28.08600
15589 SI 15589 SI SI1 15589 1.100000 28.08600
15590 SI 15590 SI SI1 15590 1.100000 28.08600
15591 SI 15591 SI SI1 15591 1.100000 28.08600
15592 SI 15592 SI SI1 15592 1.100000 28.08600
15593 SI 15593 SI SI1 15593 1.100000 28.08600
15594 SI 15594 SI SI1 15594 1.100000 28.08600
15595 SI 15595 SI SI1 15595 1.100000 28.08600
15596 SI 15596 SI SI1 15596 1.100000 28.08600
15597 SI 15597 SI SI1 15597 1.100000 28.08600
15598 SI 15598 SI SI1 15598 1.100000 28.08600
15599 SI 15599 SI SI1 15599 1.100000 28.08600
15600 SI 15600 SI SI1 15600 1.100000 28.08600
15601 SI 15601 SI SI1 15601 1.100000 28.08600
15602 SI 15602 SI SI1 15602 1.100000 28.08600
15603 SI 15603 SI SI1 15603 1.100000 28.08600
15604 SI 15604 SI SI1 15604 1.100000 28.08600
15605 SI 15605 SI SI1 15605 1.100000 28.08600
15606 SI 15606 SI SI1 15606 1.100000 28.08600
15607 SI 15607 SI SI1 15607 1.100000 28.08600
15608 SI 15608 SI SI1 15608 1.100000 28.08600
15609 SI 15609 SI SI1 15609 1.100000 28.08600
15610 SI 15610 SI SI1 15610 1.100000 28.08600
15611 SI 15611 SI SI1 15611 1.100000 28.08600
15612 SI 15612 SI SI1 15612 1.100000 28.08600
15613 SI 15613 SI SI1 15613 1.100000 28.08600
15614 SI 15614 SI SI1 15614 1.100000 28.08600
15615 SI 15615 SI SI1 15615 1.100000 28.08600
15616 SI 15616 SI SI1 15616 1.100000 28.08600
15617 SI 15617 SI SI1 15617 1.100000 28.08600
15618 SI 15618 SI SI1 15618 1.100000 28.08600
15619 SI 15619 SI SI1 15619 1.100000 28.08600
15620 SI 15620 SI SI1 15620 1.100000 28.08600
15621 SI 15621 SI SI1 15621 1.100000 28.08600
15622 SI 15622 SI SI1 15622 1.100000 28.08600
15623 SI 15623 SI SI1 15623 1.100000 28.08600
15624 SI 15624 SI SI1 15624 1.100000 28.08600
15625 SI 15625 SI SI1 15625 1.100000 28.08600
15626 SI 15626 SI SI1 15626 1.100000 28.08600
15627 SI 15627 SI SI1 15627 1.100000 28.08600
15628 SI 15628 SI SI1 15628 1.100000 28.08600
15629 SI 15629 SI SI1 15629 1.100000 28.08600
15630 SI 15630 SI SI1 15630 1.100000 28.08600
15631 SI 15631 SI SI1 15631 1.100000 28.08600
15632 SI 15632 SI SI1 15632 1.100000 28.08600
15633 SI 15633 SI SI1 15633 1.100000 28.08600
15634 SI 15634 SI SI1 15634 1.100000 28.08600
15635 SI 15635 SI SI1 15635 1.100000 28.08600
15636 SI 15636 SI SI1 15636 1.100000 28.08600
15637 SI 15637 SI SI1 15637 1.100000 28.08600
15638 SI 15638 SI SI1 15638 1.100000 28.08600
15639 SI 15639 SI SI1 15639 1.100000 28.08600
15640 SI 15640 SI SI1 15640 1.100000 28.08600
15641 SI 15641 SI SI1 15641 1.100000 28.08600
15642 SI 15642 SI SI1 15642 1.100000 28.08600
15643 SI 15643 SI SI1 15643 1.100000 28.08600
15644 SI 15644 SI SI1 15644 1.100000 28.08600
15645 SI 15645 SI SI1 15645 1.100000 28.08600
15646 SI 15646 SI SI1 15646 1.100000 28.08600
15647 SI 15647 SI SI1 15647 1.100000 28.08600
15648 SI 15648 SI SI1 15648 1.100000 28.08600
15649 SI 15649 SI SI1 15649 1.100000 28.08600
15650 SI 15650 SI SI1 15650 1.100000 28.08600
15651 SI 15651 SI SI1 15651 1.100000 28.08600
15652 SI 15652 SI SI1 15652 1.100000 28.08600
15653 SI 15653 SI SI1 15653 1.100000 28.08600
15654 SI 15654 SI SI1 15654 1.100000 28.08600
15655 SI 15655 SI SI1 15655 1.100000 28.08600
15656 SI 15656 SI SI1 15656 1.100000 28.08600
15657 SI 15657 SI SI1 15657 1.100000 28.08600
15658 SI 15658 SI SI1 15658 1.100000 28.08600
15659 SI 15659 SI SI1 15659 1.100000 28.08600
15660 SI 15660 SI SI1 15660 1.100000 28.08600
15661 SI 15661 SI SI1 15661 1.100000 28.08600
15662 SI 15662 SI SI1 15662 1.100000 28.08600
15663 SI 15663 SI SI1 15663 1.100000 28.08600
15664 SI 15664 SI SI1 15664 1.100000 28.08600
15665 SI 15665 SI SI1 15665 1.100000 28.08600
15666 SI 15666 SI SI1 15666 1.100000 28.08600
15667 SI 15667 SI SI1 15667 1.100000 28.08600
15668 SI 15668 SI SI1 15668 1.100000 28.08600
15669 SI 15669 SI SI1 15669 1.100000 28.08600
15670 SI 15670 SI SI1 15670 1.100000 28.08600
15671 SI 15671 SI SI1 15671 1.100000 28.08600
15672 SI 15672 SI SI1 15672 1.100000 28.08600
15673 SI 15673 SI SI1 15673 1.100000 28.08600
15674 SI 15674 SI SI1 15674 1.100000 28.08600
15675 SI 15675 SI SI1 15675 1.100000 28.08600
15676 SI 15676 SI SI1 15676 1.100000 28.08600
15677 SI 15677 SI SI1 15677 1.100000 28.08600
15678 SI 15678 SI SI1 15678 1.100000 28.08600
15679 SI 15679 SI SI1 15679 1.100000 28.08600
15680 SI 15680 SI SI1 15680 1.100000 28.08600
15681 SI 15681 SI SI1 15681 1.100000 28.08600
15682 SI 15682 SI SI1 15682 1.100000 28.08600
15683 SI 15683 SI SI1 15683 1.100000 28.08600
15684 SI 15684 SI SI1 15684 1.100000 28.08600
15685 SI 15685 SI SI1 15685 1.100000 28.08600
15686 SI 15686 SI SI1 15686 1.100000 28.08600
15687 SI 15687 SI SI1 15687 1.100000 28.08600
15688 SI 15688 SI SI1 15688 1.100000 28.08600
15689 SI 15689 SI SI1 15689 1.100000 28.08600
15690 SI 15690 SI SI1 15690 1.100000 28.08600
15691 SI 15691 SI SI1 15691 1.100000 28.08600
15692 SI 15692 SI SI1 15692 1.100000 28.08600
15693 SI 15693 SI SI1 15693 1.100000 28.08600
15694 SI 15694 SI SI1 15694 1.100000 28.08600
15695 SI 15695 SI SI1 15695 1.100000 28.08600
15696 SI 15696 SI SI1 15696 1.100000 28.08600
15697 SI 15697 SI SI1 15697 1.100000 28.08600
15698 SI 15698 SI SI1 15698 1.100000 28.08600
15699 SI 15699 SI SI1 15699 1.100000 28.08600
15700 SI 15700 SI SI1 15700 1.100000 28.08600
15701 SI 15701 SI SI1 15701 1.100000 28.08600
15702 SI 15702 SI SI1 15702 1.100000 28.08600
15703 SI 15703 SI SI1 15703 1.100000 28.08600
15704 SI 15704 SI SI1 15704 1.100000 28.08600
15705 SI 15705 SI SI1 15705 1.100000 28.08600
15706 SI 15706 SI SI1 15706 1.100000 28.08600
15707 SI 15707 SI SI1 15707 1.100000 28.08600
15708 SI 15708 SI SI1 15708 1.100000 28.08600
15709 SI 15709 SI SI1 15709 1.100000 28.08600
15710 SI 15710 SI SI1 15710 1.100000 28.08600
15711 SI 15711 SI SI1 15711 1.100000 28.08600
15712 SI 15712 SI SI1 15712 1.100000 28.08600
15713 SI 15713 SI SI1 15713 1.100000 28.08600
15714 SI 15714 SI SI1 15714 1.100000 28.08600
15715 SI 15715 SI SI1 15715 1.100000 28.08600
15716 SI 15716 SI SI1 15716 1.100000 28.08600
15717 SI 15717 SI SI1 15717 1.100000 28.08600
15718 SI 15718 SI SI1 15718 1.100000 28.08600
15719 SI 15719 SI SI1 15719 1.100000 28.08600
15720 SI 15720 SI SI1 15720 1.100000 28.08600
15721 SI 15721 SI SI1 15721 1.100000 28.08600
15722 SI 15722 SI SI1 15722 1.100000 28.08600
15723 SI 15723 SI SI1 15723 1.100000 28.08600
15724 SI 15724 SI SI1 15724 1.100000 28.08600
15725 SI 15725 SI SI1 15725 1.100000 28.08600
15726 SI 15726 SI SI1 15726 1.100000 28.08600
15727 SI 15727 SI SI1 15727 1.100000 28.08600
15728 SI 15728 SI SI1 15728 1.100000 28.08600
15729 SI 15729 SI SI1 15729 1.100000 28.08600
15730 SI 15730 SI SI1 15730 1.100000 28.08600
15731 SI 15731 SI SI1 15731 1.100000 28.08600
15732 SI 15732 SI SI1 15732 1.100000 28.08600
15733 SI 15733 SI SI1 15733 1.100000 28.08600
15734 SI 15734 SI SI1 15734 1.100000 28.08600
15735 SI 15735 SI SI1 15735 1.100000 28.08600
15736 SI 15736 SI SI1 15736 1.100000 28.08600
15737 SI 15737 SI SI1 15737 1.100000 28.08600
15738 SI 15738 SI SI1 15738 1.100000 28.08600
15739 SI 15739 SI SI1 15739 1.100000 28.08600
15740 SI 15740 SI SI1 15740 1.100000 28.08600
15741 SI 15741 SI SI1 15741 1.100000 28.08600
15742 SI 15742 SI SI1 15742 1.100000 28.08600
15743 SI 15743 SI SI1 15743 1.100000 28.08600
15744 SI 15744 SI SI1 15744 1.100000 28.08600
15745 SI 15745 SI SI1 15745 1.100000 28.08600
15746 SI 15746 SI SI1 15746 1.100000 28.08600
15747 SI 15747 SI SI1 15747 1.100000 28.08600
15748 SI 15748 SI SI1 15748 1.100000 28.08600
15749 SI 15749 SI SI1 15749 1.100000 28.08600
15750 SI 15750 SI SI1 15750 1.100000 28.08600
15751 SI 15751 SI SI1 15751 1.100000 28.08600
15752 SI 15752 SI SI1 15752 1.100000 28.08600
15753 SI 15753 SI SI1 15753 1.100000 28.08600
15754 SI 15754 SI SI1 15754 1.100000 28.08600
15755 SI 15755 SI SI1 15755 1.100000 28.08600
15756 SI 15756 SI SI1 15756 1.100000 28.08600
15757 SI 15757 SI SI1 15757 1.100000 28.08600
15758 SI 15758 SI SI1 15758 1.100000 28.08600
15759 SI 15759 SI SI1 15759 1.100000 28.08600
15760 SI 15760 SI SI1 15760 1.100000 28.08600
15761 SI 15761 SI SI1 15761 1.100000 28.08600
15762 SI 15762 SI SI1 15762 1.100000 28.08600
15763 SI 15763 SI SI1 15763 1.100000 28.08600
15764 SI 15764 SI SI1 15764 1.100000 28.08600
15765 SI 15765 SI SI1 15765 1.100000 28.08600
15766 SI 15766 SI SI1 15766 1.100000 28.08600
15767 SI 15767 SI SI1 15767 1.100000 28.08600
15768 SI 15768 SI SI1 15768 1.100000 28.08600
15769 SI 15769 SI SI1 15769 1.100000 28.08600
15770 SI 15770 SI SI1 15770 1.100000 28.08600
15771 SI 15771 SI SI1 15771 1.100000 28.08600
15772 SI 15772 SI SI1 15772 1.100000 28.08600
15773 SI 15773 SI SI1 15773 1.100000 28.08600
15774 SI 15774 SI SI1 15774 1.100000 28.08600
15775 SI 15775 SI SI1 15775 1.100000 28.08600
15776 SI 15776 SI SI1 15776 1.100000 28.08600
15777 SI 15777 SI SI1 15777 1.100000 28.08600
15778 SI 15778 SI SI1 15778 1.100000 28.08600
15779 SI 15779 SI SI1 15779 1.100000 28.08600
15780 SI 15780 SI SI1 15780 1.100000 28.08600
15781 SI 15781 SI SI1 15781 1.100000 28.08600
15782 SI 15782 SI SI1 15782 1.100000 28.08600
15783 SI 15783 SI SI1 15783 1.100000 28.08600
15784 SI 15784 SI SI1 15784 1.100000 28.08600
15785 SI 15785 SI SI1 15785 1.100000 28.08600
15786 SI 15786 SI SI1 15786 1.100000 28.08600
15787 SI 15787 SI SI1 15787 1.100000 28.08600
15788 SI 15788 SI SI1 15788 1.100000 28.08600
15789 SI 15789 SI SI1 15789 1.100000 28.08600
15790 SI 15790 SI SI1 15790 1.100000 28.08600
15791 SI 15791 SI SI1 15791 1.100000 28.08600
15792 SI 15792 SI SI1 15792 1.100000 28.08600
15793 SI 15793 SI SI1 15793 1.100000 28.08600
15794 SI 15794 SI SI1 15794 1.100000 28.08600
15795 SI 15795 SI SI1 15795 1.100000 28.08600
15796 SI 15796 SI SI1 15796 1.100000 28.08600
15797 SI 15797 SI SI1 15797 1.100000 28.08600
15798 SI 15798 SI SI1 15798 1.100000 28.08600
15799 SI 15799 SI SI1 15799 1.100000 28.08600
15800 SI 15800 SI SI1 15800 1.100000 28.08600
15801 SI 15801 SI SI1 15801 1.100000 28.08600
15802 SI 15802 SI SI1 15802 1.100000 28.08600
15803 SI 15803 SI SI1 15803 1.100000 28.08600
15804 SI 15804 SI SI1 15804 1.100000 28.08600
15805 SI 15805 SI SI1 15805 1.100000 28.08600
15806 SI 15806 SI SI1 15806 1.100000 28.08600
15807 SI 15807 SI SI1 15807 1.100000 28.08600
15808 SI 15808 SI SI1 15808 1.100000 28.08600
15809 SI 15809 SI SI1 15809 1.100000 28.08600
15810 SI 15810 SI SI1 15810 1.100000 28.08600
15811 SI 15811 SI SI1 15811 1.100000 28.08600
15812 SI 15812 SI SI1 15812 1.100000 28.08600
15813 SI 15813 SI SI1 15813 1.100000 28.08600
15814 SI 15814 SI SI1 15814 1.100000 28.08600
15815 SI 15815 SI SI1 15815 1.100000 28.08600
15816 SI 15816 SI SI1 15816 1.100000 28.08600
15817 SI 15817 SI SI1 15817 1.100000 28.08600
15818 SI 15818 SI SI1 15818 1.100000 28.08600
15819 SI 15819 SI SI1 15819 1.100000 28.08600
15820 SI 15820 SI SI1 15820 1.100000 28.08600
15821 SI 15821 SI SI1 15821 1.100000 28.08600
15822 SI 15822 SI SI1 15822 1.100000 28.08600
15823 SI 15823 SI SI1 15823 1.100000 28.08600
15824 SI 15824 SI SI1 15824 1.100000 28.08600
15825 SI 15825 SI SI1 15825 1.100000 28.08600
15826 SI 15826 SI SI1 15826 1.100000 28.08600
15827 SI 15827 SI SI1 15827 1.100000 28.08600
15828 SI 15828 SI SI1 15828 1.100000 28.08600
15829 SI 15829 SI SI1 15829 1.100000 28.08600
15830 SI 15830 SI SI1 15830 1.100000 28.08600
15831 SI 15831 SI SI1 15831 1.100000 28.08600
15832 SI 15832 SI SI1 15832 1.100000 28.08600
15833 SI 15833 SI SI1 15833 1.100000 28.08600
15834 SI 15834 SI SI1 15834 1.100000 28.08600
15835 SI 15835 SI SI1 15835 1.100000 28.08600
15836 SI 15836 SI SI1 15836 1.100000 28.08600
15837 SI 15837 SI SI1 15837 1.100000 28.08600
15838 SI 15838 SI SI1 15838 1.100000 28.08600
15839 SI 15839 SI SI1 15839 1.100000 28.08600
15840 SI 15840 SI SI1 15840 1.100000 28.08600
15841 SI 15841 SI SI1 15841 1.100000 28.08600
15842 SI 15842 SI SI1 15842 1.100000 28.08600
15843 SI 15843 SI SI1 15843 1.100000 28.08600
15844 SI 15844 SI SI1 15844 1.100000 28.08600
15845 SI 15845 SI SI1 15845 1.100000 28.08600
15846 SI 15846 SI SI1 15846 1.100000 28.08600
15847 SI 15847 SI SI1 15847 1.100000 28.08600
15848 SI 15848 SI SI1 15848 1.100000 28.08600
15849 SI 15849 SI SI1 15849 1.100000 28.08600
15850 SI 15850 SI SI1 15850 1.100000 28.08600
15851 SI 15851 SI SI1 15851 1.100000 28.08600
15852 SI 15852 SI SI1 15852 1.100000 28.08600
15853 SI 15853 SI SI1 15853 1.100000 28.08600
15854 SI 15854 SI SI1 15854 1.100000 28.08600
15855 SI 15855 SI SI1 15855 1.100000 28.08600
15856 SI 15856 SI SI1 15856 1.100000 28.08600
15857 SI 15857 SI SI1 15857 1.100000 28.08600
15858 SI 15858 SI SI1 15858 1.100000 28.08600
15859 SI 15859 SI SI1 15859 1.100000 28.08600
15860 SI 15860 SI SI1 15860 1.100000 28.08600
15861 SI 15861 SI SI1 15861 1.100000 28.08600
15862 SI 15862 SI SI1 15862 1.100000 28.08600
15863 SI 15863 SI SI1 15863 1.100000 28.08600
15864 SI 15864 SI SI1 15864 1.100000 28.08600
15865 SI 15865 SI SI1 15865 1.100000 28.08600
15866 SI 15866 SI SI1 15866 1.100000 28.08600
15867 SI 15867 SI SI1 15867 1.100000 28.08600
15868 SI 15868 SI SI1 15868 1.100000 28.08600
15869 SI 15869 SI SI1 15869 1.100000 28.08600
15870 SI 15870 SI SI1 15870 1.100000 28.08600
15871 SI 15871 SI SI1 15871 1.100000 28.08600
15872 SI 15872 SI SI1 15872 1.100000 28.08600
15873 SI 15873 SI SI1 15873 1.100000 28.08600
15874 SI 15874 SI SI1 15874 1.100000 28.08600
15875 SI 15875 SI SI1 15875 1.100000 28.08600
15876 SI 15876 SI SI1 15876 1.100000 28.08600
15877 SI 15877 SI SI1 15877 1.100000 28.08600
15878 SI 15878 SI SI1 15878 1.100000 28.08600
15879 SI 15879 SI SI1 15879 1.100000 28.08600
15880 SI 15880 SI SI1 15880 1.100000 28.08600
15881 SI 15881 SI SI1 15881 1.100000 28.08600
15882 SI 15882 SI SI1 15882 1.100000 28.08600
15883 SI 15883 SI SI1 15883 1.100000 28.08600
15884 SI 15884 SI SI1 15884 1.100000 28.08600
15885 SI 15885 SI SI1 15885 1.100000 28.08600
15886 SI 15886 SI SI1 15886 1.100000 28.08600
15887 SI 15887 SI SI1 15887 1.100000 28.08600
15888 SI 15888 SI SI1 15888 1.100000 28.08600
15889 SI 15889 SI SI1 15889 1.100000 28.08600
15890 SI 15890 SI SI1 15890 1.100000 28.08600
15891 SI 15891 SI SI1 15891 1.100000 28.08600
15892 SI 15892 SI SI1 15892 1.100000 28.08600
15893 SI 15893 SI SI1 15893 1.100000 28.08600
15894 SI 15894 SI SI1 15894 1.100000 28.08600
15895 SI 15895 SI SI1 15895 1.100000 28.08600
15896 SI 15896 SI SI1 15896 1.100000 28.08600
15897 SI 15897 SI SI1 15897 1.100000 28.08600
15898 SI 15898 SI SI1 15898 1.100000 28.08600
15899 SI 15899 SI SI1 15899 1.100000 28.08600
15900 SI 15900 SI SI1 15900 1.100000 28.08600
15901 SI 15901 SI SI1 15901 1.100000 28.08600
15902 SI 15902 SI SI1 15902 1.100000 28.08600
15903 SI 15903 SI SI1 15903 1.100000 28.08600
15904 SI 15904 SI SI1 15904 1.100000 28.08600
15905 SI 15905 SI SI1 15905 1.100000 28.08600
15906 SI 15906 SI SI1 15906 1.100000 28.08600
15907 SI 15907 SI SI1 15907 1.100000 28.08600
15908 SI 15908 SI SI1 15908 1.100000 28.08600
15909 SI 15909 SI SI1 15909 1.100000 28.08600
15910 SI 15910 SI SI1 15910 1.100000 28.08600
15911 SI 15911 SI SI1 15911 1.100000 28.08600
15912 SI 15912 SI SI1 15912 1.100000 28.08600
15913 SI 15913 SI SI1 15913 1.100000 28.08600
15914 SI 15914 SI SI1 15914 1.100000 28.08600
15915 SI 15915 SI SI1 15915 1.100000 28.08600
15916 SI 15916 SI SI1 15916 1.100000 28.08600
15917 SI 15917 SI SI1 15917 1.100000 28.08600
15918 SI 15918 SI SI1 15918 1.100000 28.08600
15919 SI 15919 SI SI1 15919 1.100000 28.08600
15920 SI 15920 SI SI1 15920 1.100000 28.08600
15921 SI 15921 SI SI1 15921 1.100000 28.08600
15922 SI 15922 SI SI1 15922 1.100000 28.08600
15923 SI 15923 SI SI1 15923 1.100000 28.08600
15924 SI 15924 SI SI1 15924 1.100000 28.08600
15925 SI 15925 SI SI1 15925 1.100000 28.08600
15926 SI 15926 SI SI1 15926 1.100000 28.08600
15927 SI 15927 SI SI1 15927 1.100000 28.08600
15928 SI 15928 SI SI1 15928 1.100000 28.08600
15929 SI 15929 SI SI1 15929 1.100000 28.08600
15930 SI 15930 SI SI1 15930 1.100000 28.08600
15931 SI 15931 SI SI1 15931 1.100000 28.08600
15932 SI 15932 SI SI1 15932 1.100000 28.08600
15933 SI 15933 SI SI1 15933 1.100000 28.08600
15934 SI 15934 SI SI1 15934 1.100000 28.08600
15935 SI 15935 SI SI1 15935 1.100000 28.08600
15936 SI 15936 SI SI1 15936 1.100000 28.08600
15937 SI 15937 SI SI1 15937 1.100000 28.08600
15938 SI 15938 SI SI1 15938 1.100000 28.08600
15939 SI 15939 SI SI1 15939 1.100000 28.08600
15940 SI 15940 SI SI1 15940 1.100000 28.08600
15941 SI 15941 SI SI1 15941 1.100000 28.08600
15942 SI 15942 SI SI1 15942 1.100000 28.08600
15943 SI 15943 SI SI1 15943 1.100000 28.08600
15944 SI 15944 SI SI1 15944 1.100000 28.08600
15945 SI 15945 SI SI1 15945 1.100000 28.08600
15946 SI 15946 SI SI1 15946 1.100000 28.08600
15947 SI 15947 SI SI1 15947 1.100000 28.08600
15948 SI 15948 SI SI1 15948 1.100000 28.08600
15949 SI 15949 SI SI1 15949 1.100000 28.08600
15950 SI 15950 SI SI1 15950 1.100000 28.08600
15951 SI 15951 SI SI1 15951 1.100000 28.08600
15952 SI 15952 SI SI1 15952 1.100000 28.08600
15953 SI 15953 SI SI1 15953 1.100000 28.08600
15954 SI 15954 SI SI1 15954 1.100000 28.08600
15955 SI 15955 SI SI1 15955 1.100000 28.08600
15956 SI 15956 SI SI1 15956 1.100000 28.08600
15957 SI 15957 SI SI1 15957 1.100000 28.08600
15958 SI 15958 SI SI1 15958 1.100000 28.08600
15959 SI 15959 SI SI1 15959 1.100000 28.08600
15960 SI 15960 SI SI1 15960 1.100000 28.08600
15961 SI 15961 SI SI1 15961 1.100000 28.08600
15962 SI 15962 SI SI1 15962 1.100000 28.08600
15963 SI 15963 SI SI1 15963 1.100000 28.08600
15964 SI 15964 SI SI1 15964 1.100000 28.08600
15965 SI 15965 SI SI1 15965 1.100000 28.08600
15966 SI 15966 SI SI1 15966 1.100000 28.08600
15967 SI 15967 SI SI1 15967 1.100000 28.08600
15968 SI 15968 SI SI1 15968 1.100000 28.08600
15969 SI 15969 SI SI1 15969 1.100000 28.08600
15970 SI 15970 SI SI1 15970 1.100000 28.08600
15971 SI 15971 SI SI1 15971 1.100000 28.08600
15972 SI 15972 SI SI1 15972 1.100000 28.08600
15973 SI 15973 SI SI1 15973 1.100000 28.08600
15974 SI 15974 SI SI1 15974 1.100000 28.08600
15975 SI 15975 SI SI1 15975 1.100000 28.08600
15976 SI 15976 SI SI1 15976 1.100000 28.08600
15977 SI 15977 SI SI1 15977 1.100000 28.08600
15978 SI 15978 SI SI1 15978 1.100000 28.08600
15979 SI 15979 SI SI1 15979 1.100000 28.08600
15980 SI 15980 SI SI1 15980 1.100000 28.08600
15981 SI 15981 SI SI1 15981 1.100000 28.08600
15982 SI 15982 SI SI1 15982 1.100000 28.08600
15983 SI 15983 SI SI1 15983 1.100000 28.08600
15984 SI 15984 SI SI1 15984 1.100000 28.08600
15985 SI 15985 SI SI1 15985 1.100000 28.08600
15986 SI 15986 SI SI1 15986 1.100000 28.08600
15987 SI 15987 SI SI1 15987 1.100000 28.08600
15988 SI 15988 SI SI1 15988 1.100000 28.08600
15989 SI 15989 SI SI1 15989 1.100000 28.08600
15990 SI 15990 SI SI1 15990 1.100000 28.08600
15991 SI 15991 SI SI1 15991 1.100000 28.08600
15992 SI 15992 SI SI1 15992 1.100000 28.08600
15993 SI 15993 SI SI1 15993 1.100000 28.08600
15994 SI 15994 SI SI1 15994 1.100000 28.08600
15995 SI 15995 SI SI1 15995 1.100000 28.08600
15996 SI 15996 SI SI1 15996 1.100000 28.08600
15997 SI 15997 SI SI1 15997 1.100000 28.08600
15998 SI 15998 SI SI1 15998 1.100000 28.08600
15999 SI 15999 SI SI1 15999 1.100000 28.08600
16000 SI 16000 SI SI1 16000 1.100000 28.08600
16001 SI 16001 SI SI1 16001 1.100000 28.08600
16002 SI 16002 SI SI1 16002 1.100000 28.08600
16003 SI 16003 SI SI1 16003 1.100000 28.08600
16004 SI 16004 SI SI1 16004 1.100000 28.08600
16005 SI 16005 SI SI1 16005 1.100000 28.08600
16006 SI 16006 SI SI1 16006 1.100000 28.08600
16007 SI 16007 SI SI1 16007 1.100000 28.08600
16008 SI 16008 SI SI1 16008 1.100000 28.08600
16009 SI 16009 SI SI1 16009 1.100000 28.08600
16010 SI 16010 SI SI1 16010 1.100000 28.08600
16011 SI 16011 SI SI1 16011 1.100000 28.08600
16012 SI 16012 SI SI1 16012 1.100000 28.08600
16013 SI 16013 SI SI1 16013 1.100000 28.08600
16014 SI 16014 SI SI1 16014 1.100000 28.08600
16015 SI 16015 SI SI1 16015 1.100000 28.08600
16016 SI 16016 SI SI1 16016 1.100000 28.08600
16017 SI 16017 SI SI1 16017 1.100000 28.08600
16018 SI 16018 SI SI1 16018 1.100000 28.08600
16019 SI 16019 SI SI1 16019 1.100000 28.08600
16020 SI 16020 SI SI1 16020 1.100000 28.08600
16021 SI 16021 SI SI1 16021 1.100000 28.08600
16022 SI 16022 SI SI1 16022 1.100000 28.08600
16023 SI 16023 SI SI1 16023 1.100000 28.08600
16024 SI 16024 SI SI1 16024 1.100000 28.08600
16025 SI 16025 SI SI1 16025 1.100000 28.08600
16026 SI 16026 SI SI1 16026 1.100000 28.08600
16027 SI 16027 SI SI1 16027 1.100000 28.08600
16028 SI 16028 SI SI1 16028 1.100000 28.08600
16029 SI 16029 SI SI1 16029 1.100000 28.08600
16030 SI 16030 SI SI1 16030 1.100000 28.08600
16031 SI 16031 SI SI1 16031 1.100000 28.08600
16032 SI 16032 SI SI1 16032 1.100000 28.08600
16033 SI 16033 SI SI1 16033 1.100000 28.08600
16034 SI 16034 SI SI1 16034 1.100000 28.08600
16035 SI 16035 SI SI1 16035 1.100000 28.08600
16036 SI 16036 SI SI1 16036 1.100000 28.08600
16037 SI 16037 SI SI1 16037 1.100000 28.08600
16038 SI 16038 SI SI1 16038 1.100000 28.08600
16039 SI 16039 SI SI1 16039 1.100000 28.08600
16040 SI 16040 SI SI1 16040 1.100000 28.08600
16041 SI 16041 SI SI1 16041 1.100000 28.08600
16042 SI 16042 SI SI1 16042 1.100000 28.08600
16043 SI 16043 SI SI1 16043 1.100000 28.08600
16044 SI 16044 SI SI1 16044 1.100000 28.08600
16045 SI 16045 SI SI1 16045 1.100000 28.08600
16046 SI 16046 SI SI1 16046 1.100000 28.08600
16047 SI 16047 SI SI1 16047 1.100000 28.08600
16048 SI 16048 SI SI1 16048 1.100000 28.08600
16049 SI 16049 SI SI1 16049 1.100000 28.08600
16050 SI 16050 SI SI1 16050 1.100000 28.08600
16051 SI 16051 SI SI1 16051 1.100000 28.08600
16052 SI 16052 SI SI1 16052 1.100000 28.08600
16053 SI 16053 SI SI1 16053 1.100000 28.08600
16054 SI 16054 SI SI1 16054 1.100000 28.08600
16055 SI 16055 SI SI1 16055 1.100000 28.08600
16056 SI 16056 SI SI1 16056 1.100000 28.08600
16057 SI 16057 SI SI1 16057 1.100000 28.08600
16058 SI 16058 SI SI1 16058 1.100000 28.08600
16059 SI 16059 SI SI1 16059 1.100000 28.08600
16060 SI 16060 SI SI1 16060 1.100000 28.08600
16061 SI 16061 SI SI1 16061 1.100000 28.08600
16062 SI 16062 SI SI1 16062 1.100000 28.08600
16063 SI 16063 SI SI1 16063 1.100000 28.08600
16064 SI 16064 SI SI1 16064 1.100000 28.08600
16065 SI 16065 SI SI1 16065 1.100000 28.08600
16066 SI 16066 SI SI1 16066 1.100000 28.08600
16067 SI 16067 SI SI1 16067 1.100000 28.08600
16068 SI 16068 SI SI1 16068 1.100000 28.08600
16069 SI 16069 SI SI1 16069 1.100000 28.08600
16070 SI 16070 SI SI1 16070 1.100000 28.08600
16071 SI 16071 SI SI1 16071 1.100000 28.08600
16072 SI 16072 SI SI1 16072 1.100000 28.08600
16073 SI 16073 SI SI1 16073 1.100000 28.08600
16074 SI 16074 SI SI1 16074 1.100000 28.08600
16075 SI 16075 SI SI1 16075 1.100000 28.08600
16076 SI 16076 SI SI1 16076 1.100000 28.08600
16077 SI 16077 SI SI1 16077 1.100000 28.08600
16078 SI 16078 SI SI1 16078 1.100000 28.08600
16079 SI 16079 SI SI1 16079 1.100000 28.08600
16080 SI 16080 SI SI1 16080 1.100000 28.08600
16081 SI 16081 SI SI1 16081 1.100000 28.08600
16082 SI 16082 SI SI1 16082 1.100000 28.08600
16083 SI 16083 SI SI1 16083 1.100000 28.08600
16084 SI 16084 SI SI1 16084 1.100000 28.08600
16085 SI 16085 SI SI1 16085 1.100000 28.08600
16086 SI 16086 SI SI1 16086 1.100000 28.08600
16087 SI 16087 SI SI1 16087 1.100000 28.08600
16088 SI 16088 SI SI1 16088 1.100000 28.08600
16089 SI 16089 SI SI1 16089 1.100000 28.08600
16090 SI 16090 SI SI1 16090 1.100000 28.08600
16091 SI 16091 SI SI1 16091 1.100000 28.08600
16092 SI 16092 SI SI1 16092 1.100000 28.08600
16093 SI 16093 SI SI1 16093 1.100000 28.08600
16094 SI 16094 SI SI1 16094 1.100000 28.08600
16095 SI 16095 SI SI1 16095 1.100000 28.08600
16096 SI 16096 SI SI1 16096 1.100000 28.08600
16097 SI 16097 SI SI1 16097 1.100000 28.08600
16098 SI 16098 SI SI1 16098 1.100000 28.08600
16099 SI 16099 SI SI1 16099 1.100000 28.08600
16100 SI 16100 SI SI1 16100 1.100000 28.08600
16101 SI 16101 SI SI1 16101 1.100000 28.08600
16102 SI 16102 SI SI1 16102 1.100000 28.08600
16103 SI 16103 SI SI1 16103 1.100000 28.08600
16104 SI 16104 SI SI1 16104 1.100000 28.08600
16105 SI 16105 SI SI1 16105 1.100000 28.08600
16106 SI 16106 SI SI1 16106 1.100000 28.08600
16107 SI 16107 SI SI1 16107 1.100000 28.08600
16108 SI 16108 SI SI1 16108 1.100000 28.08600
16109 SI 16109 SI SI1 16109 1.100000 28.08600
16110 SI 16110 SI SI1 16110 1.100000 28.08600
16111 SI 16111 SI SI1 16111 1.100000 28.08600
16112 SI 16112 SI SI1 16112 1.100000 28.08600
16113 SI 16113 SI SI1 16113 1.100000 28.08600
16114 SI 16114 SI SI1 16114 1.100000 28.08600
16115 SI 16115 SI SI1 16115 1.100000 28.08600
16116 SI 16116 SI SI1 16116 1.100000 28.08600
16117 SI 16117 SI SI1 16117 1.100000 28.08600
16118 SI 16118 SI SI1 16118 1.100000 28.08600
16119 SI 16119 SI SI1 16119 1.100000 28.08600
16120 SI 16120 SI SI1 16120 1.100000 28.08600
16121 SI 16121 SI SI1 16121 1.100000 28.08600
16122 SI 16122 SI SI1 16122 1.100000 28.08600
16123 SI 16123 SI SI1 16123 1.100000 28.08600
16124 SI 16124 SI SI1 16124 1.100000 28.08600
16125 SI 16125 SI SI1 16125 1.100000 28.08600
16126 SI 16126 SI SI1 16126 1.100000 28.08600
16127 SI 16127 SI SI1 16127 1.100000 28.08600
16128 SI 16128 SI SI1 16128 1.100000 28.08600
16129 SI 16129 SI SI1 16129 1.100000 28.08600
16130 SI 16130 SI SI1 16130 1.100000 28.08600
16131 SI 16131 SI SI1 16131 1.100000 28.08600
16132 SI 16132 SI SI1 16132 1.100000 28.08600
16133 SI 16133 SI SI1 16133 1.100000 28.08600
16134 SI 16134 SI SI1 16134 1.100000 28.08600
16135 SI 16135 SI SI1 16135 1.100000 28.08600
16136 SI 16136 SI SI1 16136 1.100000 28.08600
16137 SI 16137 SI SI1 16137 1.100000 28.08600
16138 SI 16138 SI SI1 16138 1.100000 28.08600
16139 SI 16139 SI SI1 16139 1.100000 28.08600
16140 SI 16140 SI SI1 16140 1.100000 28.08600
16141 SI 16141 SI SI1 16141 1.100000 28.08600
16142 SI 16142 SI SI1 16142 1.100000 28.08600
16143 SI 16143 SI SI1 16143 1.100000 28.08600
16144 SI 16144 SI SI1 16144 1.100000 28.08600
16145 SI 16145 SI SI1 16145 1.100000 28.08600
16146 SI 16146 SI SI1 16146 1.100000 28.08600
16147 SI 16147 SI SI1 16147 1.100000 28.08600
16148 SI 16148 SI SI1 16148 1.100000 28.08600
16149 SI 16149 SI SI1 16149 1.100000 28.08600
16150 SI 16150 SI SI1 16150 1.100000 28.08600
16151 SI 16151 SI SI1 16151 1.100000 28.08600
16152 SI 16152 SI SI1 16152 1.100000 28.08600
16153 SI 16153 SI SI1 16153 1.100000 28.08600
16154 SI 16154 SI SI1 16154 1.100000 28.08600
16155 SI 16155 SI SI1 16155 1.100000 28.08600
16156 SI 16156 SI SI1 16156 1.100000 28.08600
16157 SI 16157 SI SI1 16157 1.100000 28.08600
16158 SI 16158 SI SI1 16158 1.100000 28.08600
16159 SI 16159 SI SI1 16159 1.100000 28.08600
16160 SI 16160 SI SI1 16160 1.100000 28.08600
16161 SI 16161 SI SI1 16161 1.100000 28.08600
16162 SI 16162 SI SI1 16162 1.100000 28.08600
16163 SI 16163 SI SI1 16163 1.100000 28.08600
16164 SI 16164 SI SI1 16164 1.100000 28.08600
16165 SI 16165 SI SI1 16165 1.100000 28.08600
16166 SI 16166 SI SI1 16166 1.100000 28.08600
16167 SI 16167 SI SI1 16167 1.100000 28.08600
16168 SI 16168 SI SI1 16168 1.100000 28.08600
16169 SI 16169 SI SI1 16169 1.100000 28.08600
16170 SI 16170 SI SI1 16170 1.100000 28.08600
16171 SI 16171 SI SI1 16171 1.100000 28.08600
16172 SI 16172 SI SI1 16172 1.100000 28.08600
16173 SI 16173 SI SI1 16173 1.100000 28.08600
16174 SI 16174 SI SI1 16174 1.100000 28.08600
16175 SI 16175 SI SI1 16175 1.100000 28.08600
16176 SI 16176 SI SI1 16176 1.100000 28.08600
16177 SI 16177 SI SI1 16177 1.100000 28.08600
16178 SI 16178 SI SI1 16178 1.100000 28.08600
16179 SI 16179 SI SI1 16179 1.100000 28.08600
16180 SI 16180 SI SI1 16180 1.100000 28.08600
16181 SI 16181 SI SI1 16181 1.100000 28.08600
16182 SI 16182 SI SI1 16182 1.100000 28.08600
16183 SI 16183 SI SI1 16183 1.100000 28.08600
16184 SI 16184 SI SI1 16184 1.100000 28.08600
16185 SI 16185 SI SI1 16185 1.100000 28.08600
16186 SI 16186 SI SI1 16186 1.100000 28.08600
16187 SI 16187 SI SI1 16187 1.100000 28.08600
16188 SI 16188 SI SI1 16188 1.100000 28.08600
16189 SI 16189 SI SI1 16189 1.100000 28.08600
16190 SI 16190 SI SI1 16190 1.100000 28.08600
16191 SI 16191 SI SI1 16191 1.100000 28.08600
16192 SI 16192 SI SI1 16192 1.100000 28.08600
16193 SI 16193 SI SI1 16193 1.100000 28.08600
16194 SI 16194 SI SI1 16194 1.100000 28.08600
16195 SI 16195 SI SI1 16195 1.100000 28.08600
16196 SI 16196 SI SI1 16196 1.100000 28.08600
16197 SI 16197 SI SI1 16197 1.100000 28.08600
16198 SI 16198 SI SI1 16198 1.100000 28.08600
16199 SI 16199 SI SI1 16199 1.100000 28.08600
16200 SI 16200 SI SI1 16200 1.100000 28.08600
16201 SI 16201 SI SI1 16201 1.100000 28.08600
16202 SI 16202 SI SI1 16202 1.100000 28.08600
16203 SI 16203 SI SI1 16203 1.100000 28.08600
16204 SI 16204 SI SI1 16204 1.100000 28.08600
16205 SI 16205 SI SI1 16205 1.100000 28.08600
16206 SI 16206 SI SI1 16206 1.100000 28.08600
16207 SI 16207 SI SI1 16207 1.100000 28.08600
16208 SI 16208 SI SI1 16208 1.100000 28.08600
16209 SI 16209 SI SI1 16209 1.100000 28.08600
16210 SI 16210 SI SI1 16210 1.100000 28.08600
16211 SI 16211 SI SI1 16211 1.100000 28.08600
16212 SI 16212 SI SI1 16212 1.100000 28.08600
16213 SI 16213 SI SI1 16213 1.100000 28.08600
16214 ha 16214 TPSG HA2 16214 0.1332 1.008000
16215 ca 16214 TPSG CA2 16215 -0.0753 12.010000
16216 ca 16214 TPSG CA1 16216 -0.361 12.010000
16217 si 16214 TPSG Si 16217 1.1 28.085000
16218 ca 16214 TPSG CA6 16218 -0.0753 12.010000
16219 ha 16214 TPSG HH6 16219 0.1332 1.008000
16220 ca 16214 TPSG CA5 16220 -0.1548 12.010000
16221 ha 16214 TPSG HA5 16221 0.1282 1.008000
16222 ca 16214 TPSG CA4 16222 -0.1028 12.010000
16223 ha 16214 TPSG HA4 16223 0.1262 1.008000
16224 ca 16214 TPSG CA3 16224 -0.1548 12.010000
16225 ha 16214 TPSG HA3 16225 0.1282 1.008000
16226 OA 16214 TPSG O1 16226 -0.675000 15.99940
16227 HG 16214 TPSG H6 16227 0.400000 2.01600
16228 ha 16215 TPSG HA2 16228 0.1332 1.008000
16229 ca 16215 TPSG CA2 16229 -0.0753 12.010000
16230 ca 16215 TPSG CA1 16230 -0.361 12.010000
16231 si 16215 TPSG Si 16231 1.1 28.085000
16232 ca 16215 TPSG CA6 16232 -0.0753 12.010000
16233 ha 16215 TPSG HH6 16233 0.1332 1.008000
16234 ca 16215 TPSG CA5 16234 -0.1548 12.010000
16235 ha 16215 TPSG HA5 16235 0.1282 1.008000
16236 ca 16215 TPSG CA4 16236 -0.1028 12.010000
16237 ha 16215 TPSG HA4 16237 0.1262 1.008000
16238 ca 16215 TPSG CA3 16238 -0.1548 12.010000
16239 ha 16215 TPSG HA3 16239 0.1282 1.008000
16240 OA 16215 TPSG O1 16240 -0.675000 15.99940
16241 HG 16215 TPSG H6 16241 0.400000 2.01600
16242 ha 16216 TPSG HA2 16242 0.1332 1.008000
16243 ca 16216 TPSG CA2 16243 -0.0753 12.010000
16244 ca 16216 TPSG CA1 16244 -0.361 12.010000
16245 si 16216 TPSG Si 16245 1.1 28.085000
16246 ca 16216 TPSG CA6 16246 -0.0753 12.010000
16247 ha 16216 TPSG HH6 16247 0.1332 1.008000
16248 ca 16216 TPSG CA5 16248 -0.1548 12.010000
16249 ha 16216 TPSG HA5 16249 0.1282 1.008000
16250 ca 16216 TPSG CA4 16250 -0.1028 12.010000
16251 ha 16216 TPSG HA4 16251 0.1262 1.008000
16252 ca 16216 TPSG CA3 16252 -0.1548 12.010000
16253 ha 16216 TPSG HA3 16253 0.1282 1.008000
16254 OA 16216 TPSG O1 16254 -0.675000 15.99940
16255 HG 16216 TPSG H6 16255 0.400000 2.01600
16256 ha 16217 TPSG HA2 16256 0.1332 1.008000
16257 ca 16217 TPSG CA2 16257 -0.0753 12.010000
16258 ca 16217 TPSG CA1 16258 -0.361 12.010000
16259 si 16217 TPSG Si 16259 1.1 28.085000
16260 ca 16217 TPSG CA6 16260 -0.0753 12.010000
16261 ha 16217 TPSG HH6 16261 0.1332 1.008000
16262 ca 16217 TPSG CA5 16262 -0.1548 12.010000
16263 ha 16217 TPSG HA5 16263 0.1282 1.008000
16264 ca 16217 TPSG CA4 16264 -0.1028 12.010000
16265 ha 16217 TPSG HA4 16265 0.1262 1.008000
16266 ca 16217 TPSG CA3 16266 -0.1548 12.010000
16267 ha 16217 TPSG HA3 16267 0.1282 1.008000
16268 OA 16217 TPSG O1 16268 -0.675000 15.99940
16269 HG 16217 TPSG H6 16269 0.400000 2.01600
16270 ha 16218 TPSG HA2 16270 0.1332 1.008000
16271 ca 16218 TPSG CA2 16271 -0.0753 12.010000
16272 ca 16218 TPSG CA1 16272 -0.361 12.010000
16273 si 16218 TPSG Si 16273 1.1 28.085000
16274 ca 16218 TPSG CA6 16274 -0.0753 12.010000
16275 ha 16218 TPSG HH6 16275 0.1332 1.008000
16276 ca 16218 TPSG CA5 16276 -0.1548 12.010000
16277 ha 16218 TPSG HA5 16277 0.1282 1.008000
16278 ca 16218 TPSG CA4 16278 -0.1028 12.010000
16279 ha 16218 TPSG HA4 16279 0.1262 1.008000
16280 ca 16218 TPSG CA3 16280 -0.1548 12.010000
16281 ha 16218 TPSG HA3 16281 0.1282 1.008000
16282 OA 16218 TPSG O1 16282 -0.675000 15.99940
16283 HG 16218 TPSG H6 16283 0.400000 2.01600
16284 ha 16219 TPSG HA2 16284 0.1332 1.008000
16285 ca 16219 TPSG CA2 16285 -0.0753 12.010000
16286 ca 16219 TPSG CA1 16286 -0.361 12.010000
16287 si 16219 TPSG Si 16287 1.1 28.085000
16288 ca 16219 TPSG CA6 16288 -0.0753 12.010000
16289 ha 16219 TPSG HH6 16289 0.1332 1.008000
16290 ca 16219 TPSG CA5 16290 -0.1548 12.010000
16291 ha 16219 TPSG HA5 16291 0.1282 1.008000
16292 ca 16219 TPSG CA4 16292 -0.1028 12.010000
16293 ha 16219 TPSG HA4 16293 0.1262 1.008000
16294 ca 16219 TPSG CA3 16294 -0.1548 12.010000
16295 ha 16219 TPSG HA3 16295 0.1282 1.008000
16296 OA 16219 TPSG O1 16296 -0.675000 15.99940
16297 HG 16219 TPSG H6 16297 0.400000 2.01600
16298 ha 16220 TPSG HA2 16298 0.1332 1.008000
16299 ca 16220 TPSG CA2 16299 -0.0753 12.010000
16300 ca 16220 TPSG CA1 16300 -0.361 12.010000
16301 si 16220 TPSG Si 16301 1.1 28.085000
16302 ca 16220 TPSG CA6 16302 -0.0753 12.010000
16303 ha 16220 TPSG HH6 16303 0.1332 1.008000
16304 ca 16220 TPSG CA5 16304 -0.1548 12.010000
16305 ha 16220 TPSG HA5 16305 0.1282 1.008000
16306 ca 16220 TPSG CA4 16306 -0.1028 12.010000
16307 ha 16220 TPSG HA4 16307 0.1262 1.008000
16308 ca 16220 TPSG CA3 16308 -0.1548 12.010000
16309 ha 16220 TPSG HA3 16309 0.1282 1.008000
16310 OA 16220 TPSG O1 16310 -0.675000 15.99940
16311 HG 16220 TPSG H6 16311 0.400000 2.01600
16312 ha 16221 TPSG HA2 16312 0.1332 1.008000
16313 ca 16221 TPSG CA2 16313 -0.0753 12.010000
16314 ca 16221 TPSG CA1 16314 -0.361 12.010000
16315 si 16221 TPSG Si 16315 1.1 28.085000
16316 ca 16221 TPSG CA6 16316 -0.0753 12.010000
16317 ha 16221 TPSG HH6 16317 0.1332 1.008000
16318 ca 16221 TPSG CA5 16318 -0.1548 12.010000
16319 ha 16221 TPSG HA5 16319 0.1282 1.008000
16320 ca 16221 TPSG CA4 16320 -0.1028 12.010000
16321 ha 16221 TPSG HA4 16321 0.1262 1.008000
16322 ca 16221 TPSG CA3 16322 -0.1548 12.010000
16323 ha 16221 TPSG HA3 16323 0.1282 1.008000
16324 OA 16221 TPSG O1 16324 -0.675000 15.99940
16325 HG 16221 TPSG H6 16325 0.400000 2.01600
16326 ha 16222 TPSG HA2 16326 0.1332 1.008000
16327 ca 16222 TPSG CA2 16327 -0.0753 12.010000
16328 ca 16222 TPSG CA1 16328 -0.361 12.010000
16329 si 16222 TPSG Si 16329 1.1 28.085000
16330 ca 16222 TPSG CA6 16330 -0.0753 12.010000
16331 ha 16222 TPSG HH6 16331 0.1332 1.008000
16332 ca 16222 TPSG CA5 16332 -0.1548 12.010000
16333 ha 16222 TPSG HA5 16333 0.1282 1.008000
16334 ca 16222 TPSG CA4 16334 -0.1028 12.010000
16335 ha 16222 TPSG HA4 16335 0.1262 1.008000
16336 ca 16222 TPSG CA3 16336 -0.1548 12.010000
16337 ha 16222 TPSG HA3 16337 0.1282 1.008000
16338 OA 16222 TPSG O1 16338 -0.675000 15.99940
16339 HG 16222 TPSG H6 16339 0.400000 2.01600
16340 ha 16223 TPSG HA2 16340 0.1332 1.008000
16341 ca 16223 TPSG CA2 16341 -0.0753 12.010000
16342 ca 16223 TPSG CA1 16342 -0.361 12.010000
16343 si 16223 TPSG Si 16343 1.1 28.085000
16344 ca 16223 TPSG CA6 16344 -0.0753 12.010000
16345 ha 16223 TPSG HH6 16345 0.1332 1.008000
16346 ca 16223 TPSG CA5 16346 -0.1548 12.010000
16347 ha 16223 TPSG HA5 16347 0.1282 1.008000
16348 ca 16223 TPSG CA4 16348 -0.1028 12.010000
16349 ha 16223 TPSG HA4 16349 0.1262 1.008000
16350 ca 16223 TPSG CA3 16350 -0.1548 12.010000
16351 ha 16223 TPSG HA3 16351 0.1282 1.008000
16352 OA 16223 TPSG O1 16352 -0.675000 15.99940
16353 HG 16223 TPSG H6 16353 0.400000 2.01600
16354 ha 16224 TPSG HA2 16354 0.1332 1.008000
16355 ca 16224 TPSG CA2 16355 -0.0753 12.010000
16356 ca 16224 TPSG CA1 16356 -0.361 12.010000
16357 si 16224 TPSG Si 16357 1.1 28.085000
16358 ca 16224 TPSG CA6 16358 -0.0753 12.010000
16359 ha 16224 TPSG HH6 16359 0.1332 1.008000
16360 ca 16224 TPSG CA5 16360 -0.1548 12.010000
16361 ha 16224 TPSG HA5 16361 0.1282 1.008000
16362 ca 16224 TPSG CA4 16362 -0.1028 12.010000
16363 ha 16224 TPSG HA4 16363 0.1262 1.008000
16364 ca 16224 TPSG CA3 16364 -0.1548 12.010000
16365 ha 16224 TPSG HA3 16365 0.1282 1.008000
16366 OA 16224 TPSG O1 16366 -0.675000 15.99940
16367 HG 16224 TPSG H6 16367 0.400000 2.01600
16368 ha 16225 TPSG HA2 16368 0.1332 1.008000
16369 ca 16225 TPSG CA2 16369 -0.0753 12.010000
16370 ca 16225 TPSG CA1 16370 -0.361 12.010000
16371 si 16225 TPSG Si 16371 1.1 28.085000
16372 ca 16225 TPSG CA6 16372 -0.0753 12.010000
16373 ha 16225 TPSG HH6 16373 0.1332 1.008000
16374 ca 16225 TPSG CA5 16374 -0.1548 12.010000
16375 ha 16225 TPSG HA5 16375 0.1282 1.008000
16376 ca 16225 TPSG CA4 16376 -0.1028 12.010000
16377 ha 16225 TPSG HA4 16377 0.1262 1.008000
16378 ca 16225 TPSG CA3 16378 -0.1548 12.010000
16379 ha 16225 TPSG HA3 16379 0.1282 1.008000
16380 OA 16225 TPSG O1 16380 -0.675000 15.99940
16381 HG 16225 TPSG H6 16381 0.400000 2.01600
16382 ha 16226 TPSG HA2 16382 0.1332 1.008000
16383 ca 16226 TPSG CA2 16383 -0.0753 12.010000
16384 ca 16226 TPSG CA1 16384 -0.361 12.010000
16385 si 16226 TPSG Si 16385 1.1 28.085000
16386 ca 16226 TPSG CA6 16386 -0.0753 12.010000
16387 ha 16226 TPSG HH6 16387 0.1332 1.008000
16388 ca 16226 TPSG CA5 16388 -0.1548 12.010000
16389 ha 16226 TPSG HA5 16389 0.1282 1.008000
16390 ca 16226 TPSG CA4 16390 -0.1028 12.010000
16391 ha 16226 TPSG HA4 16391 0.1262 1.008000
16392 ca 16226 TPSG CA3 16392 -0.1548 12.010000
16393 ha 16226 TPSG HA3 16393 0.1282 1.008000
16394 OA 16226 TPSG O1 16394 -0.675000 15.99940
16395 HG 16226 TPSG H6 16395 0.400000 2.01600
16396 ha 16227 TPSG HA2 16396 0.1332 1.008000
16397 ca 16227 TPSG CA2 16397 -0.0753 12.010000
16398 ca 16227 TPSG CA1 16398 -0.361 12.010000
16399 si 16227 TPSG Si 16399 1.1 28.085000
16400 ca 16227 TPSG CA6 16400 -0.0753 12.010000
16401 ha 16227 TPSG HH6 16401 0.1332 1.008000
16402 ca 16227 TPSG CA5 16402 -0.1548 12.010000
16403 ha 16227 TPSG HA5 16403 0.1282 1.008000
16404 ca 16227 TPSG CA4 16404 -0.1028 12.010000
16405 ha 16227 TPSG HA4 16405 0.1262 1.008000
16406 ca 16227 TPSG CA3 16406 -0.1548 12.010000
16407 ha 16227 TPSG HA3 16407 0.1282 1.008000
16408 OA 16227 TPSG O1 16408 -0.675000 15.99940
16409 HG 16227 TPSG H6 16409 0.400000 2.01600
16410 ha 16228 TPSG HA2 16410 0.1332 1.008000
16411 ca 16228 TPSG CA2 16411 -0.0753 12.010000
16412 ca 16228 TPSG CA1 16412 -0.361 12.010000
16413 si 16228 TPSG Si 16413 1.1 28.085000
16414 ca 16228 TPSG CA6 16414 -0.0753 12.010000
16415 ha 16228 TPSG HH6 16415 0.1332 1.008000
16416 ca 16228 TPSG CA5 16416 -0.1548 12.010000
16417 ha 16228 TPSG HA5 16417 0.1282 1.008000
16418 ca 16228 TPSG CA4 16418 -0.1028 12.010000
16419 ha 16228 TPSG HA4 16419 0.1262 1.008000
16420 ca 16228 TPSG CA3 16420 -0.1548 12.010000
16421 ha 16228 TPSG HA3 16421 0.1282 1.008000
16422 OA 16228 TPSG O1 16422 -0.675000 15.99940
16423 HG 16228 TPSG H6 16423 0.400000 2.01600
16424 ha 16229 TPSG HA2 16424 0.1332 1.008000
16425 ca 16229 TPSG CA2 16425 -0.0753 12.010000
16426 ca 16229 TPSG CA1 16426 -0.361 12.010000
16427 si 16229 TPSG Si 16427 1.1 28.085000
16428 ca 16229 TPSG CA6 16428 -0.0753 12.010000
16429 ha 16229 TPSG HH6 16429 0.1332 1.008000
16430 ca 16229 TPSG CA5 16430 -0.1548 12.010000
16431 ha 16229 TPSG HA5 16431 0.1282 1.008000
16432 ca 16229 TPSG CA4 16432 -0.1028 12.010000
16433 ha 16229 TPSG HA4 16433 0.1262 1.008000
16434 ca 16229 TPSG CA3 16434 -0.1548 12.010000
16435 ha 16229 TPSG HA3 16435 0.1282 1.008000
16436 OA 16229 TPSG O1 16436 -0.675000 15.99940
16437 HG 16229 TPSG H6 16437 0.400000 2.01600
16438 ha 16230 TPSG HA2 16438 0.1332 1.008000
16439 ca 16230 TPSG CA2 16439 -0.0753 12.010000
16440 ca 16230 TPSG CA1 16440 -0.361 12.010000
16441 si 16230 TPSG Si 16441 1.1 28.085000
16442 ca 16230 TPSG CA6 16442 -0.0753 12.010000
16443 ha 16230 TPSG HH6 16443 0.1332 1.008000
16444 ca 16230 TPSG CA5 16444 -0.1548 12.010000
16445 ha 16230 TPSG HA5 16445 0.1282 1.008000
16446 ca 16230 TPSG CA4 16446 -0.1028 12.010000
16447 ha 16230 TPSG HA4 16447 0.1262 1.008000
16448 ca 16230 TPSG CA3 16448 -0.1548 12.010000
16449 ha 16230 TPSG HA3 16449 0.1282 1.008000
16450 OA 16230 TPSG O1 16450 -0.675000 15.99940
16451 HG 16230 TPSG H6 16451 0.400000 2.01600
16452 ha 16231 TPSG HA2 16452 0.1332 1.008000
16453 ca 16231 TPSG CA2 16453 -0.0753 12.010000
16454 ca 16231 TPSG CA1 16454 -0.361 12.010000
16455 si 16231 TPSG Si 16455 1.1 28.085000
16456 ca 16231 TPSG CA6 16456 -0.0753 12.010000
16457 ha 16231 TPSG HH6 16457 0.1332 1.008000
16458 ca 16231 TPSG CA5 16458 -0.1548 12.010000
16459 ha 16231 TPSG HA5 16459 0.1282 1.008000
16460 ca 16231 TPSG CA4 16460 -0.1028 12.010000
16461 ha 16231 TPSG HA4 16461 0.1262 1.008000
16462 ca 16231 TPSG CA3 16462 -0.1548 12.010000
16463 ha 16231 TPSG HA3 16463 0.1282 1.008000
16464 OA 16231 TPSG O1 16464 -0.675000 15.99940
16465 HG 16231 TPSG H6 16465 0.400000 2.01600
16466 ha 16232 TPSG HA2 16466 0.1332 1.008000
16467 ca 16232 TPSG CA2 16467 -0.0753 12.010000
16468 ca 16232 TPSG CA1 16468 -0.361 12.010000
16469 si 16232 TPSG Si 16469 1.1 28.085000
16470 ca 16232 TPSG CA6 16470 -0.0753 12.010000
16471 ha 16232 TPSG HH6 16471 0.1332 1.008000
16472 ca 16232 TPSG CA5 16472 -0.1548 12.010000
16473 ha 16232 TPSG HA5 16473 0.1282 1.008000
16474 ca 16232 TPSG CA4 16474 -0.1028 12.010000
16475 ha 16232 TPSG HA4 16475 0.1262 1.008000
16476 ca 16232 TPSG CA3 16476 -0.1548 12.010000
16477 ha 16232 TPSG HA3 16477 0.1282 1.008000
16478 OA 16232 TPSG O1 16478 -0.675000 15.99940
16479 HG 16232 TPSG H6 16479 0.400000 2.01600
16480 ha 16233 TPSG HA2 16480 0.1332 1.008000
16481 ca 16233 TPSG CA2 16481 -0.0753 12.010000
16482 ca 16233 TPSG CA1 16482 -0.361 12.010000
16483 si 16233 TPSG Si 16483 1.1 28.085000
16484 ca 16233 TPSG CA6 16484 -0.0753 12.010000
16485 ha 16233 TPSG HH6 16485 0.1332 1.008000
16486 ca 16233 TPSG CA5 16486 -0.1548 12.010000
16487 ha 16233 TPSG HA5 16487 0.1282 1.008000
16488 ca 16233 TPSG CA4 16488 -0.1028 12.010000
16489 ha 16233 TPSG HA4 16489 0.1262 1.008000
16490 ca 16233 TPSG CA3 16490 -0.1548 12.010000
16491 ha 16233 TPSG HA3 16491 0.1282 1.008000
16492 OA 16233 TPSG O1 16492 -0.675000 15.99940
16493 HG 16233 TPSG H6 16493 0.400000 2.01600
16494 ha 16234 TPSG HA2 16494 0.1332 1.008000
16495 ca 16234 TPSG CA2 16495 -0.0753 12.010000
16496 ca 16234 TPSG CA1 16496 -0.361 12.010000
16497 si 16234 TPSG Si 16497 1.1 28.085000
16498 ca 16234 TPSG CA6 16498 -0.0753 12.010000
16499 ha 16234 TPSG HH6 16499 0.1332 1.008000
16500 ca 16234 TPSG CA5 16500 -0.1548 12.010000
16501 ha 16234 TPSG HA5 16501 0.1282 1.008000
16502 ca 16234 TPSG CA4 16502 -0.1028 12.010000
16503 ha 16234 TPSG HA4 16503 0.1262 1.008000
16504 ca 16234 TPSG CA3 16504 -0.1548 12.010000
16505 ha 16234 TPSG HA3 16505 0.1282 1.008000
16506 OA 16234 TPSG O1 16506 -0.675000 15.99940
16507 HG 16234 TPSG H6 16507 0.400000 2.01600
16508 ha 16235 TPSG HA2 16508 0.1332 1.008000
16509 ca 16235 TPSG CA2 16509 -0.0753 12.010000
16510 ca 16235 TPSG CA1 16510 -0.361 12.010000
16511 si 16235 TPSG Si 16511 1.1 28.085000
16512 ca 16235 TPSG CA6 16512 -0.0753 12.010000
16513 ha 16235 TPSG HH6 16513 0.1332 1.008000
16514 ca 16235 TPSG CA5 16514 -0.1548 12.010000
16515 ha 16235 TPSG HA5 16515 0.1282 1.008000
16516 ca 16235 TPSG CA4 16516 -0.1028 12.010000
16517 ha 16235 TPSG HA4 16517 0.1262 1.008000
16518 ca 16235 TPSG CA3 16518 -0.1548 12.010000
16519 ha 16235 TPSG HA3 16519 0.1282 1.008000
16520 OA 16235 TPSG O1 16520 -0.675000 15.99940
16521 HG 16235 TPSG H6 16521 0.400000 2.01600
16522 ha 16236 TPSG HA2 16522 0.1332 1.008000
16523 ca 16236 TPSG CA2 16523 -0.0753 12.010000
16524 ca 16236 TPSG CA1 16524 -0.361 12.010000
16525 si 16236 TPSG Si 16525 1.1 28.085000
16526 ca 16236 TPSG CA6 16526 -0.0753 12.010000
16527 ha 16236 TPSG HH6 16527 0.1332 1.008000
16528 ca 16236 TPSG CA5 16528 -0.1548 12.010000
16529 ha 16236 TPSG HA5 16529 0.1282 1.008000
16530 ca 16236 TPSG CA4 16530 -0.1028 12.010000
16531 ha 16236 TPSG HA4 16531 0.1262 1.008000
16532 ca 16236 TPSG CA3 16532 -0.1548 12.010000
16533 ha 16236 TPSG HA3 16533 0.1282 1.008000
16534 OA 16236 TPSG O1 16534 -0.675000 15.99940
16535 HG 16236 TPSG H6 16535 0.400000 2.01600
16536 ha 16237 TPSG HA2 16536 0.1332 1.008000
16537 ca 16237 TPSG CA2 16537 -0.0753 12.010000
16538 ca 16237 TPSG CA1 16538 -0.361 12.010000
16539 si 16237 TPSG Si 16539 1.1 28.085000
16540 ca 16237 TPSG CA6 16540 -0.0753 12.010000
16541 ha 16237 TPSG HH6 16541 0.1332 1.008000
16542 ca 16237 TPSG CA5 16542 -0.1548 12.010000
16543 ha 16237 TPSG HA5 16543 0.1282 1.008000
16544 ca 16237 TPSG CA4 16544 -0.1028 12.010000
16545 ha 16237 TPSG HA4 16545 0.1262 1.008000
16546 ca 16237 TPSG CA3 16546 -0.1548 12.010000
16547 ha 16237 TPSG HA3 16547 0.1282 1.008000
16548 OA 16237 TPSG O1 16548 -0.675000 15.99940
16549 HG 16237 TPSG H6 16549 0.400000 2.01600
16550 ha 16238 TPSG HA2 16550 0.1332 1.008000
16551 ca 16238 TPSG CA2 16551 -0.0753 12.010000
16552 ca 16238 TPSG CA1 16552 -0.361 12.010000
16553 si 16238 TPSG Si 16553 1.1 28.085000
16554 ca 16238 TPSG CA6 16554 -0.0753 12.010000
16555 ha 16238 TPSG HH6 16555 0.1332 1.008000
16556 ca 16238 TPSG CA5 16556 -0.1548 12.010000
16557 ha 16238 TPSG HA5 16557 0.1282 1.008000
16558 ca 16238 TPSG CA4 16558 -0.1028 12.010000
16559 ha 16238 TPSG HA4 16559 0.1262 1.008000
16560 ca 16238 TPSG CA3 16560 -0.1548 12.010000
16561 ha 16238 TPSG HA3 16561 0.1282 1.008000
16562 OA 16238 TPSG O1 16562 -0.675000 15.99940
16563 HG 16238 TPSG H6 16563 0.400000 2.01600
16564 ha 16239 TPSG HA2 16564 0.1332 1.008000
16565 ca 16239 TPSG CA2 16565 -0.0753 12.010000
16566 ca 16239 TPSG CA1 16566 -0.361 12.010000
16567 si 16239 TPSG Si 16567 1.1 28.085000
16568 ca 16239 TPSG CA6 16568 -0.0753 12.010000
16569 ha 16239 TPSG HH6 16569 0.1332 1.008000
16570 ca 16239 TPSG CA5 16570 -0.1548 12.010000
16571 ha 16239 TPSG HA5 16571 0.1282 1.008000
16572 ca 16239 TPSG CA4 16572 -0.1028 12.010000
16573 ha 16239 TPSG HA4 16573 0.1262 1.008000
16574 ca 16239 TPSG CA3 16574 -0.1548 12.010000
16575 ha 16239 TPSG HA3 16575 0.1282 1.008000
16576 OA 16239 TPSG O1 16576 -0.675000 15.99940
16577 HG 16239 TPSG H6 16577 0.400000 2.01600
16578 ha 16240 TPSG HA2 16578 0.1332 1.008000
16579 ca 16240 TPSG CA2 16579 -0.0753 12.010000
16580 ca 16240 TPSG CA1 16580 -0.361 12.010000
16581 si 16240 TPSG Si 16581 1.1 28.085000
16582 ca 16240 TPSG CA6 16582 -0.0753 12.010000
16583 ha 16240 TPSG HH6 16583 0.1332 1.008000
16584 ca 16240 TPSG CA5 16584 -0.1548 12.010000
16585 ha 16240 TPSG HA5 16585 0.1282 1.008000
16586 ca 16240 TPSG CA4 16586 -0.1028 12.010000
16587 ha 16240 TPSG HA4 16587 0.1262 1.008000
16588 ca 16240 TPSG CA3 16588 -0.1548 12.010000
16589 ha 16240 TPSG HA3 16589 0.1282 1.008000
16590 OA 16240 TPSG O1 16590 -0.675000 15.99940
16591 HG 16240 TPSG H6 16591 0.400000 2.01600
16592 ha 16241 TPSG HA2 16592 0.1332 1.008000
16593 ca 16241 TPSG CA2 16593 -0.0753 12.010000
16594 ca 16241 TPSG CA1 16594 -0.361 12.010000
16595 si 16241 TPSG Si 16595 1.1 28.085000
16596 ca 16241 TPSG CA6 16596 -0.0753 12.010000
16597 ha 16241 TPSG HH6 16597 0.1332 1.008000
16598 ca 16241 TPSG CA5 16598 -0.1548 12.010000
16599 ha 16241 TPSG HA5 16599 0.1282 1.008000
16600 ca 16241 TPSG CA4 16600 -0.1028 12.010000
16601 ha 16241 TPSG HA4 16601 0.1262 1.008000
16602 ca 16241 TPSG CA3 16602 -0.1548 12.010000
16603 ha 16241 TPSG HA3 16603 0.1282 1.008000
16604 OA 16241 TPSG O1 16604 -0.675000 15.99940
16605 HG 16241 TPSG H6 16605 0.400000 2.01600
16606 ha 16242 TPSG HA2 16606 0.1332 1.008000
16607 ca 16242 TPSG CA2 16607 -0.0753 12.010000
16608 ca 16242 TPSG CA1 16608 -0.361 12.010000
16609 si 16242 TPSG Si 16609 1.1 28.085000
16610 ca 16242 TPSG CA6 16610 -0.0753 12.010000
16611 ha 16242 TPSG HH6 16611 0.1332 1.008000
16612 ca 16242 TPSG CA5 16612 -0.1548 12.010000
16613 ha 16242 TPSG HA5 16613 0.1282 1.008000
16614 ca 16242 TPSG CA4 16614 -0.1028 12.010000
16615 ha 16242 TPSG HA4 16615 0.1262 1.008000
16616 ca 16242 TPSG CA3 16616 -0.1548 12.010000
16617 ha 16242 TPSG HA3 16617 0.1282 1.008000
16618 OA 16242 TPSG O1 16618 -0.675000 15.99940
16619 HG 16242 TPSG H6 16619 0.400000 2.01600
16620 ha 16243 TPSG HA2 16620 0.1332 1.008000
16621 ca 16243 TPSG CA2 16621 -0.0753 12.010000
16622 ca 16243 TPSG CA1 16622 -0.361 12.010000
16623 si 16243 TPSG Si 16623 1.1 28.085000
16624 ca 16243 TPSG CA6 16624 -0.0753 12.010000
16625 ha 16243 TPSG HH6 16625 0.1332 1.008000
16626 ca 16243 TPSG CA5 16626 -0.1548 12.010000
16627 ha 16243 TPSG HA5 16627 0.1282 1.008000
16628 ca 16243 TPSG CA4 16628 -0.1028 12.010000
16629 ha 16243 TPSG HA4 16629 0.1262 1.008000
16630 ca 16243 TPSG CA3 16630 -0.1548 12.010000
16631 ha 16243 TPSG HA3 16631 0.1282 1.008000
16632 OA 16243 TPSG O1 16632 -0.675000 15.99940
16633 HG 16243 TPSG H6 16633 0.400000 2.01600
16634 ha 16244 TPSG HA2 16634 0.1332 1.008000
16635 ca 16244 TPSG CA2 16635 -0.0753 12.010000
16636 ca 16244 TPSG CA1 16636 -0.361 12.010000
16637 si 16244 TPSG Si 16637 1.1 28.085000
16638 ca 16244 TPSG CA6 16638 -0.0753 12.010000
16639 ha 16244 TPSG HH6 16639 0.1332 1.008000
16640 ca 16244 TPSG CA5 16640 -0.1548 12.010000
16641 ha 16244 TPSG HA5 16641 0.1282 1.008000
16642 ca 16244 TPSG CA4 16642 -0.1028 12.010000
16643 ha 16244 TPSG HA4 16643 0.1262 1.008000
16644 ca 16244 TPSG CA3 16644 -0.1548 12.010000
16645 ha 16244 TPSG HA3 16645 0.1282 1.008000
16646 OA 16244 TPSG O1 16646 -0.675000 15.99940
16647 HG 16244 TPSG H6 16647 0.400000 2.01600
16648 ha 16245 TPSG HA2 16648 0.1332 1.008000
16649 ca 16245 TPSG CA2 16649 -0.0753 12.010000
16650 ca 16245 TPSG CA1 16650 -0.361 12.010000
16651 si 16245 TPSG Si 16651 1.1 28.085000
16652 ca 16245 TPSG CA6 16652 -0.0753 12.010000
16653 ha 16245 TPSG HH6 16653 0.1332 1.008000
16654 ca 16245 TPSG CA5 16654 -0.1548 12.010000
16655 ha 16245 TPSG HA5 16655 0.1282 1.008000
16656 ca 16245 TPSG CA4 16656 -0.1028 12.010000
16657 ha 16245 TPSG HA4 16657 0.1262 1.008000
16658 ca 16245 TPSG CA3 16658 -0.1548 12.010000
16659 ha 16245 TPSG HA3 16659 0.1282 1.008000
16660 OA 16245 TPSG O1 16660 -0.675000 15.99940
16661 HG 16245 TPSG H6 16661 0.400000 2.01600
16662 ha 16246 TPSG HA2 16662 0.1332 1.008000
16663 ca 16246 TPSG CA2 16663 -0.0753 12.010000
16664 ca 16246 TPSG CA1 16664 -0.361 12.010000
16665 si 16246 TPSG Si 16665 1.1 28.085000
16666 ca 16246 TPSG CA6 16666 -0.0753 12.010000
16667 ha 16246 TPSG HH6 16667 0.1332 1.008000
16668 ca 16246 TPSG CA5 16668 -0.1548 12.010000
16669 ha 16246 TPSG HA5 16669 0.1282 1.008000
16670 ca 16246 TPSG CA4 16670 -0.1028 12.010000
16671 ha 16246 TPSG HA4 16671 0.1262 1.008000
16672 ca 16246 TPSG CA3 16672 -0.1548 12.010000
16673 ha 16246 TPSG HA3 16673 0.1282 1.008000
16674 OA 16246 TPSG O1 16674 -0.675000 15.99940
16675 HG 16246 TPSG H6 16675 0.400000 2.01600
16676 ha 16247 TPSG HA2 16676 0.1332 1.008000
16677 ca 16247 TPSG CA2 16677 -0.0753 12.010000
16678 ca 16247 TPSG CA1 16678 -0.361 12.010000
16679 si 16247 TPSG Si 16679 1.1 28.085000
16680 ca 16247 TPSG CA6 16680 -0.0753 12.010000
16681 ha 16247 TPSG HH6 16681 0.1332 1.008000
16682 ca 16247 TPSG CA5 16682 -0.1548 12.010000
16683 ha 16247 TPSG HA5 16683 0.1282 1.008000
16684 ca 16247 TPSG CA4 16684 -0.1028 12.010000
16685 ha 16247 TPSG HA4 16685 0.1262 1.008000
16686 ca 16247 TPSG CA3 16686 -0.1548 12.010000
16687 ha 16247 TPSG HA3 16687 0.1282 1.008000
16688 OA 16247 TPSG O1 16688 -0.675000 15.99940
16689 HG 16247 TPSG H6 16689 0.400000 2.01600
16690 ha 16248 TPSG HA2 16690 0.1332 1.008000
16691 ca 16248 TPSG CA2 16691 -0.0753 12.010000
16692 ca 16248 TPSG CA1 16692 -0.361 12.010000
16693 si 16248 TPSG Si 16693 1.1 28.085000
16694 ca 16248 TPSG CA6 16694 -0.0753 12.010000
16695 ha 16248 TPSG HH6 16695 0.1332 1.008000
16696 ca 16248 TPSG CA5 16696 -0.1548 12.010000
16697 ha 16248 TPSG HA5 16697 0.1282 1.008000
16698 ca 16248 TPSG CA4 16698 -0.1028 12.010000
16699 ha 16248 TPSG HA4 16699 0.1262 1.008000
16700 ca 16248 TPSG CA3 16700 -0.1548 12.010000
16701 ha 16248 TPSG HA3 16701 0.1282 1.008000
16702 OA 16248 TPSG O1 16702 -0.675000 15.99940
16703 HG 16248 TPSG H6 16703 0.400000 2.01600
16704 ha 16249 TPSG HA2 16704 0.1332 1.008000
16705 ca 16249 TPSG CA2 16705 -0.0753 12.010000
16706 ca 16249 TPSG CA1 16706 -0.361 12.010000
16707 si 16249 TPSG Si 16707 1.1 28.085000
16708 ca 16249 TPSG CA6 16708 -0.0753 12.010000
16709 ha 16249 TPSG HH6 16709 0.1332 1.008000
16710 ca 16249 TPSG CA5 16710 -0.1548 12.010000
16711 ha 16249 TPSG HA5 16711 0.1282 1.008000
16712 ca 16249 TPSG CA4 16712 -0.1028 12.010000
16713 ha 16249 TPSG HA4 16713 0.1262 1.008000
16714 ca 16249 TPSG CA3 16714 -0.1548 12.010000
16715 ha 16249 TPSG HA3 16715 0.1282 1.008000
16716 OA 16249 TPSG O1 16716 -0.675000 15.99940
16717 HG 16249 TPSG H6 16717 0.400000 2.01600
16718 ha 16250 TPSG HA2 16718 0.1332 1.008000
16719 ca 16250 TPSG CA2 16719 -0.0753 12.010000
16720 ca 16250 TPSG CA1 16720 -0.361 12.010000
16721 si 16250 TPSG Si 16721 1.1 28.085000
16722 ca 16250 TPSG CA6 16722 -0.0753 12.010000
16723 ha 16250 TPSG HH6 16723 0.1332 1.008000
16724 ca 16250 TPSG CA5 16724 -0.1548 12.010000
16725 ha 16250 TPSG HA5 16725 0.1282 1.008000
16726 ca 16250 TPSG CA4 16726 -0.1028 12.010000
16727 ha 16250 TPSG HA4 16727 0.1262 1.008000
16728 ca 16250 TPSG CA3 16728 -0.1548 12.010000
16729 ha 16250 TPSG HA3 16729 0.1282 1.008000
16730 OA 16250 TPSG O1 16730 -0.675000 15.99940
16731 HG 16250 TPSG H6 16731 0.400000 2.01600
16732 ha 16251 TPSG HA2 16732 0.1332 1.008000
16733 ca 16251 TPSG CA2 16733 -0.0753 12.010000
16734 ca 16251 TPSG CA1 16734 -0.361 12.010000
16735 si 16251 TPSG Si 16735 1.1 28.085000
16736 ca 16251 TPSG CA6 16736 -0.0753 12.010000
16737 ha 16251 TPSG HH6 16737 0.1332 1.008000
16738 ca 16251 TPSG CA5 16738 -0.1548 12.010000
16739 ha 16251 TPSG HA5 16739 0.1282 1.008000
16740 ca 16251 TPSG CA4 16740 -0.1028 12.010000
16741 ha 16251 TPSG HA4 16741 0.1262 1.008000
16742 ca 16251 TPSG CA3 16742 -0.1548 12.010000
16743 ha 16251 TPSG HA3 16743 0.1282 1.008000
16744 OA 16251 TPSG O1 16744 -0.675000 15.99940
16745 HG 16251 TPSG H6 16745 0.400000 2.01600
16746 ha 16252 TPSG HA2 16746 0.1332 1.008000
16747 ca 16252 TPSG CA2 16747 -0.0753 12.010000
16748 ca 16252 TPSG CA1 16748 -0.361 12.010000
16749 si 16252 TPSG Si 16749 1.1 28.085000
16750 ca 16252 TPSG CA6 16750 -0.0753 12.010000
16751 ha 16252 TPSG HH6 16751 0.1332 1.008000
16752 ca 16252 TPSG CA5 16752 -0.1548 12.010000
16753 ha 16252 TPSG HA5 16753 0.1282 1.008000
16754 ca 16252 TPSG CA4 16754 -0.1028 12.010000
16755 ha 16252 TPSG HA4 16755 0.1262 1.008000
16756 ca 16252 TPSG CA3 16756 -0.1548 12.010000
16757 ha 16252 TPSG HA3 16757 0.1282 1.008000
16758 OA 16252 TPSG O1 16758 -0.675000 15.99940
16759 HG 16252 TPSG H6 16759 0.400000 2.01600
16760 ha 16253 TPSG HA2 16760 0.1332 1.008000
16761 ca 16253 TPSG CA2 16761 -0.0753 12.010000
16762 ca 16253 TPSG CA1 16762 -0.361 12.010000
16763 si 16253 TPSG Si 16763 1.1 28.085000
16764 ca 16253 TPSG CA6 16764 -0.0753 12.010000
16765 ha 16253 TPSG HH6 16765 0.1332 1.008000
16766 ca 16253 TPSG CA5 16766 -0.1548 12.010000
16767 ha 16253 TPSG HA5 16767 0.1282 1.008000
16768 ca 16253 TPSG CA4 16768 -0.1028 12.010000
16769 ha 16253 TPSG HA4 16769 0.1262 1.008000
16770 ca 16253 TPSG CA3 16770 -0.1548 12.010000
16771 ha 16253 TPSG HA3 16771 0.1282 1.008000
16772 OA 16253 TPSG O1 16772 -0.675000 15.99940
16773 HG 16253 TPSG H6 16773 0.400000 2.01600
16774 ha 16254 TPSG HA2 16774 0.1332 1.008000
16775 ca 16254 TPSG CA2 16775 -0.0753 12.010000
16776 ca 16254 TPSG CA1 16776 -0.361 12.010000
16777 si 16254 TPSG Si 16777 1.1 28.085000
16778 ca 16254 TPSG CA6 16778 -0.0753 12.010000
16779 ha 16254 TPSG HH6 16779 0.1332 1.008000
16780 ca 16254 TPSG CA5 16780 -0.1548 12.010000
16781 ha 16254 TPSG HA5 16781 0.1282 1.008000
16782 ca 16254 TPSG CA4 16782 -0.1028 12.010000
16783 ha 16254 TPSG HA4 16783 0.1262 1.008000
16784 ca 16254 TPSG CA3 16784 -0.1548 12.010000
16785 ha 16254 TPSG HA3 16785 0.1282 1.008000
16786 OA 16254 TPSG O1 16786 -0.675000 15.99940
16787 HG 16254 TPSG H6 16787 0.400000 2.01600
16788 ha 16255 TPSG HA2 16788 0.1332 1.008000
16789 ca 16255 TPSG CA2 16789 -0.0753 12.010000
16790 ca 16255 TPSG CA1 16790 -0.361 12.010000
16791 si 16255 TPSG Si 16791 1.1 28.085000
16792 ca 16255 TPSG CA6 16792 -0.0753 12.010000
16793 ha 16255 TPSG HH6 16793 0.1332 1.008000
16794 ca 16255 TPSG CA5 16794 -0.1548 12.010000
16795 ha 16255 TPSG HA5 16795 0.1282 1.008000
16796 ca 16255 TPSG CA4 16796 -0.1028 12.010000
16797 ha 16255 TPSG HA4 16797 0.1262 1.008000
16798 ca 16255 TPSG CA3 16798 -0.1548 12.010000
16799 ha 16255 TPSG HA3 16799 0.1282 1.008000
16800 OA 16255 TPSG O1 16800 -0.675000 15.99940
16801 HG 16255 TPSG H6 16801 0.400000 2.01600
16802 ha 16256 TPSG HA2 16802 0.1332 1.008000
16803 ca 16256 TPSG CA2 16803 -0.0753 12.010000
16804 ca 16256 TPSG CA1 16804 -0.361 12.010000
16805 si 16256 TPSG Si 16805 1.1 28.085000
16806 ca 16256 TPSG CA6 16806 -0.0753 12.010000
16807 ha 16256 TPSG HH6 16807 0.1332 1.008000
16808 ca 16256 TPSG CA5 16808 -0.1548 12.010000
16809 ha 16256 TPSG HA5 16809 0.1282 1.008000
16810 ca 16256 TPSG CA4 16810 -0.1028 12.010000
16811 ha 16256 TPSG HA4 16811 0.1262 1.008000
16812 ca 16256 TPSG CA3 16812 -0.1548 12.010000
16813 ha 16256 TPSG HA3 16813 0.1282 1.008000
16814 OA 16256 TPSG O1 16814 -0.675000 15.99940
16815 HG 16256 TPSG H6 16815 0.400000 2.01600
16816 ha 16257 TPSG HA2 16816 0.1332 1.008000
16817 ca 16257 TPSG CA2 16817 -0.0753 12.010000
16818 ca 16257 TPSG CA1 16818 -0.361 12.010000
16819 si 16257 TPSG Si 16819 1.1 28.085000
16820 ca 16257 TPSG CA6 16820 -0.0753 12.010000
16821 ha 16257 TPSG HH6 16821 0.1332 1.008000
16822 ca 16257 TPSG CA5 16822 -0.1548 12.010000
16823 ha 16257 TPSG HA5 16823 0.1282 1.008000
16824 ca 16257 TPSG CA4 16824 -0.1028 12.010000
16825 ha 16257 TPSG HA4 16825 0.1262 1.008000
16826 ca 16257 TPSG CA3 16826 -0.1548 12.010000
16827 ha 16257 TPSG HA3 16827 0.1282 1.008000
16828 OA 16257 TPSG O1 16828 -0.675000 15.99940
16829 HG 16257 TPSG H6 16829 0.400000 2.01600
16830 ha 16258 TPSG HA2 16830 0.1332 1.008000
16831 ca 16258 TPSG CA2 16831 -0.0753 12.010000
16832 ca 16258 TPSG CA1 16832 -0.361 12.010000
16833 si 16258 TPSG Si 16833 1.1 28.085000
16834 ca 16258 TPSG CA6 16834 -0.0753 12.010000
16835 ha 16258 TPSG HH6 16835 0.1332 1.008000
16836 ca 16258 TPSG CA5 16836 -0.1548 12.010000
16837 ha 16258 TPSG HA5 16837 0.1282 1.008000
16838 ca 16258 TPSG CA4 16838 -0.1028 12.010000
16839 ha 16258 TPSG HA4 16839 0.1262 1.008000
16840 ca 16258 TPSG CA3 16840 -0.1548 12.010000
16841 ha 16258 TPSG HA3 16841 0.1282 1.008000
16842 OA 16258 TPSG O1 16842 -0.675000 15.99940
16843 HG 16258 TPSG H6 16843 0.400000 2.01600
16844 ha 16259 TPSG HA2 16844 0.1332 1.008000
16845 ca 16259 TPSG CA2 16845 -0.0753 12.010000
16846 ca 16259 TPSG CA1 16846 -0.361 12.010000
16847 si 16259 TPSG Si 16847 1.1 28.085000
16848 ca 16259 TPSG CA6 16848 -0.0753 12.010000
16849 ha 16259 TPSG HH6 16849 0.1332 1.008000
16850 ca 16259 TPSG CA5 16850 -0.1548 12.010000
16851 ha 16259 TPSG HA5 16851 0.1282 1.008000
16852 ca 16259 TPSG CA4 16852 -0.1028 12.010000
16853 ha 16259 TPSG HA4 16853 0.1262 1.008000
16854 ca 16259 TPSG CA3 16854 -0.1548 12.010000
16855 ha 16259 TPSG HA3 16855 0.1282 1.008000
16856 OA 16259 TPSG O1 16856 -0.675000 15.99940
16857 HG 16259 TPSG H6 16857 0.400000 2.01600
16858 ha 16260 TPSG HA2 16858 0.1332 1.008000
16859 ca 16260 TPSG CA2 16859 -0.0753 12.010000
16860 ca 16260 TPSG CA1 16860 -0.361 12.010000
16861 si 16260 TPSG Si 16861 1.1 28.085000
16862 ca 16260 TPSG CA6 16862 -0.0753 12.010000
16863 ha 16260 TPSG HH6 16863 0.1332 1.008000
16864 ca 16260 TPSG CA5 16864 -0.1548 12.010000
16865 ha 16260 TPSG HA5 16865 0.1282 1.008000
16866 ca 16260 TPSG CA4 16866 -0.1028 12.010000
16867 ha 16260 TPSG HA4 16867 0.1262 1.008000
16868 ca 16260 TPSG CA3 16868 -0.1548 12.010000
16869 ha 16260 TPSG HA3 16869 0.1282 1.008000
16870 OA 16260 TPSG O1 16870 -0.675000 15.99940
16871 HG 16260 TPSG H6 16871 0.400000 2.01600
16872 ha 16261 TPSG HA2 16872 0.1332 1.008000
16873 ca 16261 TPSG CA2 16873 -0.0753 12.010000
16874 ca 16261 TPSG CA1 16874 -0.361 12.010000
16875 si 16261 TPSG Si 16875 1.1 28.085000
16876 ca 16261 TPSG CA6 16876 -0.0753 12.010000
16877 ha 16261 TPSG HH6 16877 0.1332 1.008000
16878 ca 16261 TPSG CA5 16878 -0.1548 12.010000
16879 ha 16261 TPSG HA5 16879 0.1282 1.008000
16880 ca 16261 TPSG CA4 16880 -0.1028 12.010000
16881 ha 16261 TPSG HA4 16881 0.1262 1.008000
16882 ca 16261 TPSG CA3 16882 -0.1548 12.010000
16883 ha 16261 TPSG HA3 16883 0.1282 1.008000
16884 OA 16261 TPSG O1 16884 -0.675000 15.99940
16885 HG 16261 TPSG H6 16885 0.400000 2.01600
16886 ha 16262 TPSG HA2 16886 0.1332 1.008000
16887 ca 16262 TPSG CA2 16887 -0.0753 12.010000
16888 ca 16262 TPSG CA1 16888 -0.361 12.010000
16889 si 16262 TPSG Si 16889 1.1 28.085000
16890 ca 16262 TPSG CA6 16890 -0.0753 12.010000
16891 ha 16262 TPSG HH6 16891 0.1332 1.008000
16892 ca 16262 TPSG CA5 16892 -0.1548 12.010000
16893 ha 16262 TPSG HA5 16893 0.1282 1.008000
16894 ca 16262 TPSG CA4 16894 -0.1028 12.010000
16895 ha 16262 TPSG HA4 16895 0.1262 1.008000
16896 ca 16262 TPSG CA3 16896 -0.1548 12.010000
16897 ha 16262 TPSG HA3 16897 0.1282 1.008000
16898 OA 16262 TPSG O1 16898 -0.675000 15.99940
16899 HG 16262 TPSG H6 16899 0.400000 2.01600
16900 ha 16263 TPSG HA2 16900 0.1332 1.008000
16901 ca 16263 TPSG CA2 16901 -0.0753 12.010000
16902 ca 16263 TPSG CA1 16902 -0.361 12.010000
16903 si 16263 TPSG Si 16903 1.1 28.085000
16904 ca 16263 TPSG CA6 16904 -0.0753 12.010000
16905 ha 16263 TPSG HH6 16905 0.1332 1.008000
16906 ca 16263 TPSG CA5 16906 -0.1548 12.010000
16907 ha 16263 TPSG HA5 16907 0.1282 1.008000
16908 ca 16263 TPSG CA4 16908 -0.1028 12.010000
16909 ha 16263 TPSG HA4 16909 0.1262 1.008000
16910 ca 16263 TPSG CA3 16910 -0.1548 12.010000
16911 ha 16263 TPSG HA3 16911 0.1282 1.008000
16912 OA 16263 TPSG O1 16912 -0.675000 15.99940
16913 HG 16263 TPSG H6 16913 0.400000 2.01600
16914 ha 16264 TPSG HA2 16914 0.1332 1.008000
16915 ca 16264 TPSG CA2 16915 -0.0753 12.010000
16916 ca 16264 TPSG CA1 16916 -0.361 12.010000
16917 si 16264 TPSG Si 16917 1.1 28.085000
16918 ca 16264 TPSG CA6 16918 -0.0753 12.010000
16919 ha 16264 TPSG HH6 16919 0.1332 1.008000
16920 ca 16264 TPSG CA5 16920 -0.1548 12.010000
16921 ha 16264 TPSG HA5 16921 0.1282 1.008000
16922 ca 16264 TPSG CA4 16922 -0.1028 12.010000
16923 ha 16264 TPSG HA4 16923 0.1262 1.008000
16924 ca 16264 TPSG CA3 16924 -0.1548 12.010000
16925 ha 16264 TPSG HA3 16925 0.1282 1.008000
16926 OA 16264 TPSG O1 16926 -0.675000 15.99940
16927 HG 16264 TPSG H6 16927 0.400000 2.01600
16928 ha 16265 TPSG HA2 16928 0.1332 1.008000
16929 ca 16265 TPSG CA2 16929 -0.0753 12.010000
16930 ca 16265 TPSG CA1 16930 -0.361 12.010000
16931 si 16265 TPSG Si 16931 1.1 28.085000
16932 ca 16265 TPSG CA6 16932 -0.0753 12.010000
16933 ha 16265 TPSG HH6 16933 0.1332 1.008000
16934 ca 16265 TPSG CA5 16934 -0.1548 12.010000
16935 ha 16265 TPSG HA5 16935 0.1282 1.008000
16936 ca 16265 TPSG CA4 16936 -0.1028 12.010000
16937 ha 16265 TPSG HA4 16937 0.1262 1.008000
16938 ca 16265 TPSG CA3 16938 -0.1548 12.010000
16939 ha 16265 TPSG HA3 16939 0.1282 1.008000
16940 OA 16265 TPSG O1 16940 -0.675000 15.99940
16941 HG 16265 TPSG H6 16941 0.400000 2.01600
16942 ha 16266 TPSG HA2 16942 0.1332 1.008000
16943 ca 16266 TPSG CA2 16943 -0.0753 12.010000
16944 ca 16266 TPSG CA1 16944 -0.361 12.010000
16945 si 16266 TPSG Si 16945 1.1 28.085000
16946 ca 16266 TPSG CA6 16946 -0.0753 12.010000
16947 ha 16266 TPSG HH6 16947 0.1332 1.008000
16948 ca 16266 TPSG CA5 16948 -0.1548 12.010000
16949 ha 16266 TPSG HA5 16949 0.1282 1.008000
16950 ca 16266 TPSG CA4 16950 -0.1028 12.010000
16951 ha 16266 TPSG HA4 16951 0.1262 1.008000
16952 ca 16266 TPSG CA3 16952 -0.1548 12.010000
16953 ha 16266 TPSG HA3 16953 0.1282 1.008000
16954 OA 16266 TPSG O1 16954 -0.675000 15.99940
16955 HG 16266 TPSG H6 16955 0.400000 2.01600
16956 ha 16267 TPSG HA2 16956 0.1332 1.008000
16957 ca 16267 TPSG CA2 16957 -0.0753 12.010000
16958 ca 16267 TPSG CA1 16958 -0.361 12.010000
16959 si 16267 TPSG Si 16959 1.1 28.085000
16960 ca 16267 TPSG CA6 16960 -0.0753 12.010000
16961 ha 16267 TPSG HH6 16961 0.1332 1.008000
16962 ca 16267 TPSG CA5 16962 -0.1548 12.010000
16963 ha 16267 TPSG HA5 16963 0.1282 1.008000
16964 ca 16267 TPSG CA4 16964 -0.1028 12.010000
16965 ha 16267 TPSG HA4 16965 0.1262 1.008000
16966 ca 16267 TPSG CA3 16966 -0.1548 12.010000
16967 ha 16267 TPSG HA3 16967 0.1282 1.008000
16968 OA 16267 TPSG O1 16968 -0.675000 15.99940
16969 HG 16267 TPSG H6 16969 0.400000 2.01600
16970 ha 16268 TPSG HA2 16970 0.1332 1.008000
16971 ca 16268 TPSG CA2 16971 -0.0753 12.010000
16972 ca 16268 TPSG CA1 16972 -0.361 12.010000
16973 si 16268 TPSG Si 16973 1.1 28.085000
16974 ca 16268 TPSG CA6 16974 -0.0753 12.010000
16975 ha 16268 TPSG HH6 16975 0.1332 1.008000
16976 ca 16268 TPSG CA5 16976 -0.1548 12.010000
16977 ha 16268 TPSG HA5 16977 0.1282 1.008000
16978 ca 16268 TPSG CA4 16978 -0.1028 12.010000
16979 ha 16268 TPSG HA4 16979 0.1262 1.008000
16980 ca 16268 TPSG CA3 16980 -0.1548 12.010000
16981 ha 16268 TPSG HA3 16981 0.1282 1.008000
16982 OA 16268 TPSG O1 16982 -0.675000 15.99940
16983 HG 16268 TPSG H6 16983 0.400000 2.01600
16984 ha 16269 TPSG HA2 16984 0.1332 1.008000
16985 ca 16269 TPSG CA2 16985 -0.0753 12.010000
16986 ca 16269 TPSG CA1 16986 -0.361 12.010000
16987 si 16269 TPSG Si 16987 1.1 28.085000
16988 ca 16269 TPSG CA6 16988 -0.0753 12.010000
16989 ha 16269 TPSG HH6 16989 0.1332 1.008000
16990 ca 16269 TPSG CA5 16990 -0.1548 12.010000
16991 ha 16269 TPSG HA5 16991 0.1282 1.008000
16992 ca 16269 TPSG CA4 16992 -0.1028 12.010000
16993 ha 16269 TPSG HA4 16993 0.1262 1.008000
16994 ca 16269 TPSG CA3 16994 -0.1548 12.010000
16995 ha 16269 TPSG HA3 16995 0.1282 1.008000
16996 OA 16269 TPSG O1 16996 -0.675000 15.99940
16997 HG 16269 TPSG H6 16997 0.400000 2.01600
16998 ha 16270 TPSG HA2 16998 0.1332 1.008000
16999 ca 16270 TPSG CA2 16999 -0.0753 12.010000
17000 ca 16270 TPSG CA1 17000 -0.361 12.010000
17001 si 16270 TPSG Si 17001 1.1 28.085000
17002 ca 16270 TPSG CA6 17002 -0.0753 12.010000
17003 ha 16270 TPSG HH6 17003 0.1332 1.008000
17004 ca 16270 TPSG CA5 17004 -0.1548 12.010000
17005 ha 16270 TPSG HA5 17005 0.1282 1.008000
17006 ca 16270 TPSG CA4 17006 -0.1028 12.010000
17007 ha 16270 TPSG HA4 17007 0.1262 1.008000
17008 ca 16270 TPSG CA3 17008 -0.1548 12.010000
17009 ha 16270 TPSG HA3 17009 0.1282 1.008000
17010 OA 16270 TPSG O1 17010 -0.675000 15.99940
17011 HG 16270 TPSG H6 17011 0.400000 2.01600
17012 ha 16271 TPSG HA2 17012 0.1332 1.008000
17013 ca 16271 TPSG CA2 17013 -0.0753 12.010000
17014 ca 16271 TPSG CA1 17014 -0.361 12.010000
17015 si 16271 TPSG Si 17015 1.1 28.085000
17016 ca 16271 TPSG CA6 17016 -0.0753 12.010000
17017 ha 16271 TPSG HH6 17017 0.1332 1.008000
17018 ca 16271 TPSG CA5 17018 -0.1548 12.010000
17019 ha 16271 TPSG HA5 17019 0.1282 1.008000
17020 ca 16271 TPSG CA4 17020 -0.1028 12.010000
17021 ha 16271 TPSG HA4 17021 0.1262 1.008000
17022 ca 16271 TPSG CA3 17022 -0.1548 12.010000
17023 ha 16271 TPSG HA3 17023 0.1282 1.008000
17024 OA 16271 TPSG O1 17024 -0.675000 15.99940
17025 HG 16271 TPSG H6 17025 0.400000 2.01600
17026 ha 16272 TPSG HA2 17026 0.1332 1.008000
17027 ca 16272 TPSG CA2 17027 -0.0753 12.010000
17028 ca 16272 TPSG CA1 17028 -0.361 12.010000
17029 si 16272 TPSG Si 17029 1.1 28.085000
17030 ca 16272 TPSG CA6 17030 -0.0753 12.010000
17031 ha 16272 TPSG HH6 17031 0.1332 1.008000
17032 ca 16272 TPSG CA5 17032 -0.1548 12.010000
17033 ha 16272 TPSG HA5 17033 0.1282 1.008000
17034 ca 16272 TPSG CA4 17034 -0.1028 12.010000
17035 ha 16272 TPSG HA4 17035 0.1262 1.008000
17036 ca 16272 TPSG CA3 17036 -0.1548 12.010000
17037 ha 16272 TPSG HA3 17037 0.1282 1.008000
17038 OA 16272 TPSG O1 17038 -0.675000 15.99940
17039 HG 16272 TPSG H6 17039 0.400000 2.01600
17040 ha 16273 TPSG HA2 17040 0.1332 1.008000
17041 ca 16273 TPSG CA2 17041 -0.0753 12.010000
17042 ca 16273 TPSG CA1 17042 -0.361 12.010000
17043 si 16273 TPSG Si 17043 1.1 28.085000
17044 ca 16273 TPSG CA6 17044 -0.0753 12.010000
17045 ha 16273 TPSG HH6 17045 0.1332 1.008000
17046 ca 16273 TPSG CA5 17046 -0.1548 12.010000
17047 ha 16273 TPSG HA5 17047 0.1282 1.008000
17048 ca 16273 TPSG CA4 17048 -0.1028 12.010000
17049 ha 16273 TPSG HA4 17049 0.1262 1.008000
17050 ca 16273 TPSG CA3 17050 -0.1548 12.010000
17051 ha 16273 TPSG HA3 17051 0.1282 1.008000
17052 OA 16273 TPSG O1 17052 -0.675000 15.99940
17053 HG 16273 TPSG H6 17053 0.400000 2.01600
17054 ha 16274 TPSG HA2 17054 0.1332 1.008000
17055 ca 16274 TPSG CA2 17055 -0.0753 12.010000
17056 ca 16274 TPSG CA1 17056 -0.361 12.010000
17057 si 16274 TPSG Si 17057 1.1 28.085000
17058 ca 16274 TPSG CA6 17058 -0.0753 12.010000
17059 ha 16274 TPSG HH6 17059 0.1332 1.008000
17060 ca 16274 TPSG CA5 17060 -0.1548 12.010000
17061 ha 16274 TPSG HA5 17061 0.1282 1.008000
17062 ca 16274 TPSG CA4 17062 -0.1028 12.010000
17063 ha 16274 TPSG HA4 17063 0.1262 1.008000
17064 ca 16274 TPSG CA3 17064 -0.1548 12.010000
17065 ha 16274 TPSG HA3 17065 0.1282 1.008000
17066 OA 16274 TPSG O1 17066 -0.675000 15.99940
17067 HG 16274 TPSG H6 17067 0.400000 2.01600
17068 ha 16275 TPSG HA2 17068 0.1332 1.008000
17069 ca 16275 TPSG CA2 17069 -0.0753 12.010000
17070 ca 16275 TPSG CA1 17070 -0.361 12.010000
17071 si 16275 TPSG Si 17071 1.1 28.085000
17072 ca 16275 TPSG CA6 17072 -0.0753 12.010000
17073 ha 16275 TPSG HH6 17073 0.1332 1.008000
17074 ca 16275 TPSG CA5 17074 -0.1548 12.010000
17075 ha 16275 TPSG HA5 17075 0.1282 1.008000
17076 ca 16275 TPSG CA4 17076 -0.1028 12.010000
17077 ha 16275 TPSG HA4 17077 0.1262 1.008000
17078 ca 16275 TPSG CA3 17078 -0.1548 12.010000
17079 ha 16275 TPSG HA3 17079 0.1282 1.008000
17080 OA 16275 TPSG O1 17080 -0.675000 15.99940
17081 HG 16275 TPSG H6 17081 0.400000 2.01600
17082 ha 16276 TPSG HA2 17082 0.1332 1.008000
17083 ca 16276 TPSG CA2 17083 -0.0753 12.010000
17084 ca 16276 TPSG CA1 17084 -0.361 12.010000
17085 si 16276 TPSG Si 17085 1.1 28.085000
17086 ca 16276 TPSG CA6 17086 -0.0753 12.010000
17087 ha 16276 TPSG HH6 17087 0.1332 1.008000
17088 ca 16276 TPSG CA5 17088 -0.1548 12.010000
17089 ha 16276 TPSG HA5 17089 0.1282 1.008000
17090 ca 16276 TPSG CA4 17090 -0.1028 12.010000
17091 ha 16276 TPSG HA4 17091 0.1262 1.008000
17092 ca 16276 TPSG CA3 17092 -0.1548 12.010000
17093 ha 16276 TPSG HA3 17093 0.1282 1.008000
17094 OA 16276 TPSG O1 17094 -0.675000 15.99940
17095 HG 16276 TPSG H6 17095 0.400000 2.01600
17096 ha 16277 TPSG HA2 17096 0.1332 1.008000
17097 ca 16277 TPSG CA2 17097 -0.0753 12.010000
17098 ca 16277 TPSG CA1 17098 -0.361 12.010000
17099 si 16277 TPSG Si 17099 1.1 28.085000
17100 ca 16277 TPSG CA6 17100 -0.0753 12.010000
17101 ha 16277 TPSG HH6 17101 0.1332 1.008000
17102 ca 16277 TPSG CA5 17102 -0.1548 12.010000
17103 ha 16277 TPSG HA5 17103 0.1282 1.008000
17104 ca 16277 TPSG CA4 17104 -0.1028 12.010000
17105 ha 16277 TPSG HA4 17105 0.1262 1.008000
17106 ca 16277 TPSG CA3 17106 -0.1548 12.010000
17107 ha 16277 TPSG HA3 17107 0.1282 1.008000
17108 OA 16277 TPSG O1 17108 -0.675000 15.99940
17109 HG 16277 TPSG H6 17109 0.400000 2.01600
17110 ha 16278 TPSG HA2 17110 0.1332 1.008000
17111 ca 16278 TPSG CA2 17111 -0.0753 12.010000
17112 ca 16278 TPSG CA1 17112 -0.361 12.010000
17113 si 16278 TPSG Si 17113 1.1 28.085000
17114 ca 16278 TPSG CA6 17114 -0.0753 12.010000
17115 ha 16278 TPSG HH6 17115 0.1332 1.008000
17116 ca 16278 TPSG CA5 17116 -0.1548 12.010000
17117 ha 16278 TPSG HA5 17117 0.1282 1.008000
17118 ca 16278 TPSG CA4 17118 -0.1028 12.010000
17119 ha 16278 TPSG HA4 17119 0.1262 1.008000
17120 ca 16278 TPSG CA3 17120 -0.1548 12.010000
17121 ha 16278 TPSG HA3 17121 0.1282 1.008000
17122 OA 16278 TPSG O1 17122 -0.675000 15.99940
17123 HG 16278 TPSG H6 17123 0.400000 2.01600
17124 ha 16279 TPSG HA2 17124 0.1332 1.008000
17125 ca 16279 TPSG CA2 17125 -0.0753 12.010000
17126 ca 16279 TPSG CA1 17126 -0.361 12.010000
17127 si 16279 TPSG Si 17127 1.1 28.085000
17128 ca 16279 TPSG CA6 17128 -0.0753 12.010000
17129 ha 16279 TPSG HH6 17129 0.1332 1.008000
17130 ca 16279 TPSG CA5 17130 -0.1548 12.010000
17131 ha 16279 TPSG HA5 17131 0.1282 1.008000
17132 ca 16279 TPSG CA4 17132 -0.1028 12.010000
17133 ha 16279 TPSG HA4 17133 0.1262 1.008000
17134 ca 16279 TPSG CA3 17134 -0.1548 12.010000
17135 ha 16279 TPSG HA3 17135 0.1282 1.008000
17136 OA 16279 TPSG O1 17136 -0.675000 15.99940
17137 HG 16279 TPSG H6 17137 0.400000 2.01600
17138 ha 16280 TPSG HA2 17138 0.1332 1.008000
17139 ca 16280 TPSG CA2 17139 -0.0753 12.010000
17140 ca 16280 TPSG CA1 17140 -0.361 12.010000
17141 si 16280 TPSG Si 17141 1.1 28.085000
17142 ca 16280 TPSG CA6 17142 -0.0753 12.010000
17143 ha 16280 TPSG HH6 17143 0.1332 1.008000
17144 ca 16280 TPSG CA5 17144 -0.1548 12.010000
17145 ha 16280 TPSG HA5 17145 0.1282 1.008000
17146 ca 16280 TPSG CA4 17146 -0.1028 12.010000
17147 ha 16280 TPSG HA4 17147 0.1262 1.008000
17148 ca 16280 TPSG CA3 17148 -0.1548 12.010000
17149 ha 16280 TPSG HA3 17149 0.1282 1.008000
17150 OA 16280 TPSG O1 17150 -0.675000 15.99940
17151 HG 16280 TPSG H6 17151 0.400000 2.01600
17152 ha 16281 TPSG HA2 17152 0.1332 1.008000
17153 ca 16281 TPSG CA2 17153 -0.0753 12.010000
17154 ca 16281 TPSG CA1 17154 -0.361 12.010000
17155 si 16281 TPSG Si 17155 1.1 28.085000
17156 ca 16281 TPSG CA6 17156 -0.0753 12.010000
17157 ha 16281 TPSG HH6 17157 0.1332 1.008000
17158 ca 16281 TPSG CA5 17158 -0.1548 12.010000
17159 ha 16281 TPSG HA5 17159 0.1282 1.008000
17160 ca 16281 TPSG CA4 17160 -0.1028 12.010000
17161 ha 16281 TPSG HA4 17161 0.1262 1.008000
17162 ca 16281 TPSG CA3 17162 -0.1548 12.010000
17163 ha 16281 TPSG HA3 17163 0.1282 1.008000
17164 OA 16281 TPSG O1 17164 -0.675000 15.99940
17165 HG 16281 TPSG H6 17165 0.400000 2.01600
17166 ha 16282 TPSG HA2 17166 0.1332 1.008000
17167 ca 16282 TPSG CA2 17167 -0.0753 12.010000
17168 ca 16282 TPSG CA1 17168 -0.361 12.010000
17169 si 16282 TPSG Si 17169 1.1 28.085000
17170 ca 16282 TPSG CA6 17170 -0.0753 12.010000
17171 ha 16282 TPSG HH6 17171 0.1332 1.008000
17172 ca 16282 TPSG CA5 17172 -0.1548 12.010000
17173 ha 16282 TPSG HA5 17173 0.1282 1.008000
17174 ca 16282 TPSG CA4 17174 -0.1028 12.010000
17175 ha 16282 TPSG HA4 17175 0.1262 1.008000
17176 ca 16282 TPSG CA3 17176 -0.1548 12.010000
17177 ha 16282 TPSG HA3 17177 0.1282 1.008000
17178 OA 16282 TPSG O1 17178 -0.675000 15.99940
17179 HG 16282 TPSG H6 17179 0.400000 2.01600
17180 ha 16283 TPSG HA2 17180 0.1332 1.008000
17181 ca 16283 TPSG CA2 17181 -0.0753 12.010000
17182 ca 16283 TPSG CA1 17182 -0.361 12.010000
17183 si 16283 TPSG Si 17183 1.1 28.085000
17184 ca 16283 TPSG CA6 17184 -0.0753 12.010000
17185 ha 16283 TPSG HH6 17185 0.1332 1.008000
17186 ca 16283 TPSG CA5 17186 -0.1548 12.010000
17187 ha 16283 TPSG HA5 17187 0.1282 1.008000
17188 ca 16283 TPSG CA4 17188 -0.1028 12.010000
17189 ha 16283 TPSG HA4 17189 0.1262 1.008000
17190 ca 16283 TPSG CA3 17190 -0.1548 12.010000
17191 ha 16283 TPSG HA3 17191 0.1282 1.008000
17192 OA 16283 TPSG O1 17192 -0.675000 15.99940
17193 HG 16283 TPSG H6 17193 0.400000 2.01600
17194 ha 16284 TPSG HA2 17194 0.1332 1.008000
17195 ca 16284 TPSG CA2 17195 -0.0753 12.010000
17196 ca 16284 TPSG CA1 17196 -0.361 12.010000
17197 si 16284 TPSG Si 17197 1.1 28.085000
17198 ca 16284 TPSG CA6 17198 -0.0753 12.010000
17199 ha 16284 TPSG HH6 17199 0.1332 1.008000
17200 ca 16284 TPSG CA5 17200 -0.1548 12.010000
17201 ha 16284 TPSG HA5 17201 0.1282 1.008000
17202 ca 16284 TPSG CA4 17202 -0.1028 12.010000
17203 ha 16284 TPSG HA4 17203 0.1262 1.008000
17204 ca 16284 TPSG CA3 17204 -0.1548 12.010000
17205 ha 16284 TPSG HA3 17205 0.1282 1.008000
17206 OA 16284 TPSG O1 17206 -0.675000 15.99940
17207 HG 16284 TPSG H6 17207 0.400000 2.01600
17208 ha 16285 TPSG HA2 17208 0.1332 1.008000
17209 ca 16285 TPSG CA2 17209 -0.0753 12.010000
17210 ca 16285 TPSG CA1 17210 -0.361 12.010000
17211 si 16285 TPSG Si 17211 1.1 28.085000
17212 ca 16285 TPSG CA6 17212 -0.0753 12.010000
17213 ha 16285 TPSG HH6 17213 0.1332 1.008000
17214 ca 16285 TPSG CA5 17214 -0.1548 12.010000
17215 ha 16285 TPSG HA5 17215 0.1282 1.008000
17216 ca 16285 TPSG CA4 17216 -0.1028 12.010000
17217 ha 16285 TPSG HA4 17217 0.1262 1.008000
17218 ca 16285 TPSG CA3 17218 -0.1548 12.010000
17219 ha 16285 TPSG HA3 17219 0.1282 1.008000
17220 OA 16285 TPSG O1 17220 -0.675000 15.99940
17221 HG 16285 TPSG H6 17221 0.400000 2.01600
17222 ha 16286 TPSG HA2 17222 0.1332 1.008000
17223 ca 16286 TPSG CA2 17223 -0.0753 12.010000
17224 ca 16286 TPSG CA1 17224 -0.361 12.010000
17225 si 16286 TPSG Si 17225 1.1 28.085000
17226 ca 16286 TPSG CA6 17226 -0.0753 12.010000
17227 ha 16286 TPSG HH6 17227 0.1332 1.008000
17228 ca 16286 TPSG CA5 17228 -0.1548 12.010000
17229 ha 16286 TPSG HA5 17229 0.1282 1.008000
17230 ca 16286 TPSG CA4 17230 -0.1028 12.010000
17231 ha 16286 TPSG HA4 17231 0.1262 1.008000
17232 ca 16286 TPSG CA3 17232 -0.1548 12.010000
17233 ha 16286 TPSG HA3 17233 0.1282 1.008000
17234 OA 16286 TPSG O1 17234 -0.675000 15.99940
17235 HG 16286 TPSG H6 17235 0.400000 2.01600
17236 ha 16287 TPSG HA2 17236 0.1332 1.008000
17237 ca 16287 TPSG CA2 17237 -0.0753 12.010000
17238 ca 16287 TPSG CA1 17238 -0.361 12.010000
17239 si 16287 TPSG Si 17239 1.1 28.085000
17240 ca 16287 TPSG CA6 17240 -0.0753 12.010000
17241 ha 16287 TPSG HH6 17241 0.1332 1.008000
17242 ca 16287 TPSG CA5 17242 -0.1548 12.010000
17243 ha 16287 TPSG HA5 17243 0.1282 1.008000
17244 ca 16287 TPSG CA4 17244 -0.1028 12.010000
17245 ha 16287 TPSG HA4 17245 0.1262 1.008000
17246 ca 16287 TPSG CA3 17246 -0.1548 12.010000
17247 ha 16287 TPSG HA3 17247 0.1282 1.008000
17248 OA 16287 TPSG O1 17248 -0.675000 15.99940
17249 HG 16287 TPSG H6 17249 0.400000 2.01600
17250 ha 16288 TPSG HA2 17250 0.1332 1.008000
17251 ca 16288 TPSG CA2 17251 -0.0753 12.010000
17252 ca 16288 TPSG CA1 17252 -0.361 12.010000
17253 si 16288 TPSG Si 17253 1.1 28.085000
17254 ca 16288 TPSG CA6 17254 -0.0753 12.010000
17255 ha 16288 TPSG HH6 17255 0.1332 1.008000
17256 ca 16288 TPSG CA5 17256 -0.1548 12.010000
17257 ha 16288 TPSG HA5 17257 0.1282 1.008000
17258 ca 16288 TPSG CA4 17258 -0.1028 12.010000
17259 ha 16288 TPSG HA4 17259 0.1262 1.008000
17260 ca 16288 TPSG CA3 17260 -0.1548 12.010000
17261 ha 16288 TPSG HA3 17261 0.1282 1.008000
17262 OA 16288 TPSG O1 17262 -0.675000 15.99940
17263 HG 16288 TPSG H6 17263 0.400000 2.01600
17264 ha 16289 TPSG HA2 17264 0.1332 1.008000
17265 ca 16289 TPSG CA2 17265 -0.0753 12.010000
17266 ca 16289 TPSG CA1 17266 -0.361 12.010000
17267 si 16289 TPSG Si 17267 1.1 28.085000
17268 ca 16289 TPSG CA6 17268 -0.0753 12.010000
17269 ha 16289 TPSG HH6 17269 0.1332 1.008000
17270 ca 16289 TPSG CA5 17270 -0.1548 12.010000
17271 ha 16289 TPSG HA5 17271 0.1282 1.008000
17272 ca 16289 TPSG CA4 17272 -0.1028 12.010000
17273 ha 16289 TPSG HA4 17273 0.1262 1.008000
17274 ca 16289 TPSG CA3 17274 -0.1548 12.010000
17275 ha 16289 TPSG HA3 17275 0.1282 1.008000
17276 OA 16289 TPSG O1 17276 -0.675000 15.99940
17277 HG 16289 TPSG H6 17277 0.400000 2.01600
17278 ha 16290 TPSG HA2 17278 0.1332 1.008000
17279 ca 16290 TPSG CA2 17279 -0.0753 12.010000
17280 ca 16290 TPSG CA1 17280 -0.361 12.010000
17281 si 16290 TPSG Si 17281 1.1 28.085000
17282 ca 16290 TPSG CA6 17282 -0.0753 12.010000
17283 ha 16290 TPSG HH6 17283 0.1332 1.008000
17284 ca 16290 TPSG CA5 17284 -0.1548 12.010000
17285 ha 16290 TPSG HA5 17285 0.1282 1.008000
17286 ca 16290 TPSG CA4 17286 -0.1028 12.010000
17287 ha 16290 TPSG HA4 17287 0.1262 1.008000
17288 ca 16290 TPSG CA3 17288 -0.1548 12.010000
17289 ha 16290 TPSG HA3 17289 0.1282 1.008000
17290 OA 16290 TPSG O1 17290 -0.675000 15.99940
17291 HG 16290 TPSG H6 17291 0.400000 2.01600
17292 ha 16291 TPSG HA2 17292 0.1332 1.008000
17293 ca 16291 TPSG CA2 17293 -0.0753 12.010000
17294 ca 16291 TPSG CA1 17294 -0.361 12.010000
17295 si 16291 TPSG Si 17295 1.1 28.085000
17296 ca 16291 TPSG CA6 17296 -0.0753 12.010000
17297 ha 16291 TPSG HH6 17297 0.1332 1.008000
17298 ca 16291 TPSG CA5 17298 -0.1548 12.010000
17299 ha 16291 TPSG HA5 17299 0.1282 1.008000
17300 ca 16291 TPSG CA4 17300 -0.1028 12.010000
17301 ha 16291 TPSG HA4 17301 0.1262 1.008000
17302 ca 16291 TPSG CA3 17302 -0.1548 12.010000
17303 ha 16291 TPSG HA3 17303 0.1282 1.008000
17304 OA 16291 TPSG O1 17304 -0.675000 15.99940
17305 HG 16291 TPSG H6 17305 0.400000 2.01600
17306 ha 16292 TPSG HA2 17306 0.1332 1.008000
17307 ca 16292 TPSG CA2 17307 -0.0753 12.010000
17308 ca 16292 TPSG CA1 17308 -0.361 12.010000
17309 si 16292 TPSG Si 17309 1.1 28.085000
17310 ca 16292 TPSG CA6 17310 -0.0753 12.010000
17311 ha 16292 TPSG HH6 17311 0.1332 1.008000
17312 ca 16292 TPSG CA5 17312 -0.1548 12.010000
17313 ha 16292 TPSG HA5 17313 0.1282 1.008000
17314 ca 16292 TPSG CA4 17314 -0.1028 12.010000
17315 ha 16292 TPSG HA4 17315 0.1262 1.008000
17316 ca 16292 TPSG CA3 17316 -0.1548 12.010000
17317 ha 16292 TPSG HA3 17317 0.1282 1.008000
17318 OA 16292 TPSG O1 17318 -0.675000 15.99940
17319 HG 16292 TPSG H6 17319 0.400000 2.01600
17320 ha 16293 TPSG HA2 17320 0.1332 1.008000
17321 ca 16293 TPSG CA2 17321 -0.0753 12.010000
17322 ca 16293 TPSG CA1 17322 -0.361 12.010000
17323 si 16293 TPSG Si 17323 1.1 28.085000
17324 ca 16293 TPSG CA6 17324 -0.0753 12.010000
17325 ha 16293 TPSG HH6 17325 0.1332 1.008000
17326 ca 16293 TPSG CA5 17326 -0.1548 12.010000
17327 ha 16293 TPSG HA5 17327 0.1282 1.008000
17328 ca 16293 TPSG CA4 17328 -0.1028 12.010000
17329 ha 16293 TPSG HA4 17329 0.1262 1.008000
17330 ca 16293 TPSG CA3 17330 -0.1548 12.010000
17331 ha 16293 TPSG HA3 17331 0.1282 1.008000
17332 OA 16293 TPSG O1 17332 -0.675000 15.99940
17333 HG 16293 TPSG H6 17333 0.400000 2.01600
17334 ha 16294 TPSG HA2 17334 0.1332 1.008000
17335 ca 16294 TPSG CA2 17335 -0.0753 12.010000
17336 ca 16294 TPSG CA1 17336 -0.361 12.010000
17337 si 16294 TPSG Si 17337 1.1 28.085000
17338 ca 16294 TPSG CA6 17338 -0.0753 12.010000
17339 ha 16294 TPSG HH6 17339 0.1332 1.008000
17340 ca 16294 TPSG CA5 17340 -0.1548 12.010000
17341 ha 16294 TPSG HA5 17341 0.1282 1.008000
17342 ca 16294 TPSG CA4 17342 -0.1028 12.010000
17343 ha 16294 TPSG HA4 17343 0.1262 1.008000
17344 ca 16294 TPSG CA3 17344 -0.1548 12.010000
17345 ha 16294 TPSG HA3 17345 0.1282 1.008000
17346 OA 16294 TPSG O1 17346 -0.675000 15.99940
17347 HG 16294 TPSG H6 17347 0.400000 2.01600
17348 ha 16295 TPSG HA2 17348 0.1332 1.008000
17349 ca 16295 TPSG CA2 17349 -0.0753 12.010000
17350 ca 16295 TPSG CA1 17350 -0.361 12.010000
17351 si 16295 TPSG Si 17351 1.1 28.085000
17352 ca 16295 TPSG CA6 17352 -0.0753 12.010000
17353 ha 16295 TPSG HH6 17353 0.1332 1.008000
17354 ca 16295 TPSG CA5 17354 -0.1548 12.010000
17355 ha 16295 TPSG HA5 17355 0.1282 1.008000
17356 ca 16295 TPSG CA4 17356 -0.1028 12.010000
17357 ha 16295 TPSG HA4 17357 0.1262 1.008000
17358 ca 16295 TPSG CA3 17358 -0.1548 12.010000
17359 ha 16295 TPSG HA3 17359 0.1282 1.008000
17360 OA 16295 TPSG O1 17360 -0.675000 15.99940
17361 HG 16295 TPSG H6 17361 0.400000 2.01600
17362 ha 16296 TPSG HA2 17362 0.1332 1.008000
17363 ca 16296 TPSG CA2 17363 -0.0753 12.010000
17364 ca 16296 TPSG CA1 17364 -0.361 12.010000
17365 si 16296 TPSG Si 17365 1.1 28.085000
17366 ca 16296 TPSG CA6 17366 -0.0753 12.010000
17367 ha 16296 TPSG HH6 17367 0.1332 1.008000
17368 ca 16296 TPSG CA5 17368 -0.1548 12.010000
17369 ha 16296 TPSG HA5 17369 0.1282 1.008000
17370 ca 16296 TPSG CA4 17370 -0.1028 12.010000
17371 ha 16296 TPSG HA4 17371 0.1262 1.008000
17372 ca 16296 TPSG CA3 17372 -0.1548 12.010000
17373 ha 16296 TPSG HA3 17373 0.1282 1.008000
17374 OA 16296 TPSG O1 17374 -0.675000 15.99940
17375 HG 16296 TPSG H6 17375 0.400000 2.01600
17376 ha 16297 TPSG HA2 17376 0.1332 1.008000
17377 ca 16297 TPSG CA2 17377 -0.0753 12.010000
17378 ca 16297 TPSG CA1 17378 -0.361 12.010000
17379 si 16297 TPSG Si 17379 1.1 28.085000
17380 ca 16297 TPSG CA6 17380 -0.0753 12.010000
17381 ha 16297 TPSG HH6 17381 0.1332 1.008000
17382 ca 16297 TPSG CA5 17382 -0.1548 12.010000
17383 ha 16297 TPSG HA5 17383 0.1282 1.008000
17384 ca 16297 TPSG CA4 17384 -0.1028 12.010000
17385 ha 16297 TPSG HA4 17385 0.1262 1.008000
17386 ca 16297 TPSG CA3 17386 -0.1548 12.010000
17387 ha 16297 TPSG HA3 17387 0.1282 1.008000
17388 OA 16297 TPSG O1 17388 -0.675000 15.99940
17389 HG 16297 TPSG H6 17389 0.400000 2.01600
17390 ha 16298 TPSG HA2 17390 0.1332 1.008000
17391 ca 16298 TPSG CA2 17391 -0.0753 12.010000
17392 ca 16298 TPSG CA1 17392 -0.361 12.010000
17393 si 16298 TPSG Si 17393 1.1 28.085000
17394 ca 16298 TPSG CA6 17394 -0.0753 12.010000
17395 ha 16298 TPSG HH6 17395 0.1332 1.008000
17396 ca 16298 TPSG CA5 17396 -0.1548 12.010000
17397 ha 16298 TPSG HA5 17397 0.1282 1.008000
17398 ca 16298 TPSG CA4 17398 -0.1028 12.010000
17399 ha 16298 TPSG HA4 17399 0.1262 1.008000
17400 ca 16298 TPSG CA3 17400 -0.1548 12.010000
17401 ha 16298 TPSG HA3 17401 0.1282 1.008000
17402 OA 16298 TPSG O1 17402 -0.675000 15.99940
17403 HG 16298 TPSG H6 17403 0.400000 2.01600
17404 ha 16299 TPSG HA2 17404 0.1332 1.008000
17405 ca 16299 TPSG CA2 17405 -0.0753 12.010000
17406 ca 16299 TPSG CA1 17406 -0.361 12.010000
17407 si 16299 TPSG Si 17407 1.1 28.085000
17408 ca 16299 TPSG CA6 17408 -0.0753 12.010000
17409 ha 16299 TPSG HH6 17409 0.1332 1.008000
17410 ca 16299 TPSG CA5 17410 -0.1548 12.010000
17411 ha 16299 TPSG HA5 17411 0.1282 1.008000
17412 ca 16299 TPSG CA4 17412 -0.1028 12.010000
17413 ha 16299 TPSG HA4 17413 0.1262 1.008000
17414 ca 16299 TPSG CA3 17414 -0.1548 12.010000
17415 ha 16299 TPSG HA3 17415 0.1282 1.008000
17416 OA 16299 TPSG O1 17416 -0.675000 15.99940
17417 HG 16299 TPSG H6 17417 0.400000 2.01600
17418 ha 16300 TPSG HA2 17418 0.1332 1.008000
17419 ca 16300 TPSG CA2 17419 -0.0753 12.010000
17420 ca 16300 TPSG CA1 17420 -0.361 12.010000
17421 si 16300 TPSG Si 17421 1.1 28.085000
17422 ca 16300 TPSG CA6 17422 -0.0753 12.010000
17423 ha 16300 TPSG HH6 17423 0.1332 1.008000
17424 ca 16300 TPSG CA5 17424 -0.1548 12.010000
17425 ha 16300 TPSG HA5 17425 0.1282 1.008000
17426 ca 16300 TPSG CA4 17426 -0.1028 12.010000
17427 ha 16300 TPSG HA4 17427 0.1262 1.008000
17428 ca 16300 TPSG CA3 17428 -0.1548 12.010000
17429 ha 16300 TPSG HA3 17429 0.1282 1.008000
17430 OA 16300 TPSG O1 17430 -0.675000 15.99940
17431 HG 16300 TPSG H6 17431 0.400000 2.01600
17432 ha 16301 TPSG HA2 17432 0.1332 1.008000
17433 ca 16301 TPSG CA2 17433 -0.0753 12.010000
17434 ca 16301 TPSG CA1 17434 -0.361 12.010000
17435 si 16301 TPSG Si 17435 1.1 28.085000
17436 ca 16301 TPSG CA6 17436 -0.0753 12.010000
17437 ha 16301 TPSG HH6 17437 0.1332 1.008000
17438 ca 16301 TPSG CA5 17438 -0.1548 12.010000
17439 ha 16301 TPSG HA5 17439 0.1282 1.008000
17440 ca 16301 TPSG CA4 17440 -0.1028 12.010000
17441 ha 16301 TPSG HA4 17441 0.1262 1.008000
17442 ca 16301 TPSG CA3 17442 -0.1548 12.010000
17443 ha 16301 TPSG HA3 17443 0.1282 1.008000
17444 OA 16301 TPSG O1 17444 -0.675000 15.99940
17445 HG 16301 TPSG H6 17445 0.400000 2.01600
17446 ha 16302 TPSG HA2 17446 0.1332 1.008000
17447 ca 16302 TPSG CA2 17447 -0.0753 12.010000
17448 ca 16302 TPSG CA1 17448 -0.361 12.010000
17449 si 16302 TPSG Si 17449 1.1 28.085000
17450 ca 16302 TPSG CA6 17450 -0.0753 12.010000
17451 ha 16302 TPSG HH6 17451 0.1332 1.008000
17452 ca 16302 TPSG CA5 17452 -0.1548 12.010000
17453 ha 16302 TPSG HA5 17453 0.1282 1.008000
17454 ca 16302 TPSG CA4 17454 -0.1028 12.010000
17455 ha 16302 TPSG HA4 17455 0.1262 1.008000
17456 ca 16302 TPSG CA3 17456 -0.1548 12.010000
17457 ha 16302 TPSG HA3 17457 0.1282 1.008000
17458 OA 16302 TPSG O1 17458 -0.675000 15.99940
17459 HG 16302 TPSG H6 17459 0.400000 2.01600
17460 ha 16303 TPSG HA2 17460 0.1332 1.008000
17461 ca 16303 TPSG CA2 17461 -0.0753 12.010000
17462 ca 16303 TPSG CA1 17462 -0.361 12.010000
17463 si 16303 TPSG Si 17463 1.1 28.085000
17464 ca 16303 TPSG CA6 17464 -0.0753 12.010000
17465 ha 16303 TPSG HH6 17465 0.1332 1.008000
17466 ca 16303 TPSG CA5 17466 -0.1548 12.010000
17467 ha 16303 TPSG HA5 17467 0.1282 1.008000
17468 ca 16303 TPSG CA4 17468 -0.1028 12.010000
17469 ha 16303 TPSG HA4 17469 0.1262 1.008000
17470 ca 16303 TPSG CA3 17470 -0.1548 12.010000
17471 ha 16303 TPSG HA3 17471 0.1282 1.008000
17472 OA 16303 TPSG O1 17472 -0.675000 15.99940
17473 HG 16303 TPSG H6 17473 0.400000 2.01600
17474 ha 16304 TPSG HA2 17474 0.1332 1.008000
17475 ca 16304 TPSG CA2 17475 -0.0753 12.010000
17476 ca 16304 TPSG CA1 17476 -0.361 12.010000
17477 si 16304 TPSG Si 17477 1.1 28.085000
17478 ca 16304 TPSG CA6 17478 -0.0753 12.010000
17479 ha 16304 TPSG HH6 17479 0.1332 1.008000
17480 ca 16304 TPSG CA5 17480 -0.1548 12.010000
17481 ha 16304 TPSG HA5 17481 0.1282 1.008000
17482 ca 16304 TPSG CA4 17482 -0.1028 12.010000
17483 ha 16304 TPSG HA4 17483 0.1262 1.008000
17484 ca 16304 TPSG CA3 17484 -0.1548 12.010000
17485 ha 16304 TPSG HA3 17485 0.1282 1.008000
17486 OA 16304 TPSG O1 17486 -0.675000 15.99940
17487 HG 16304 TPSG H6 17487 0.400000 2.01600
17488 ha 16305 TPSG HA2 17488 0.1332 1.008000
17489 ca 16305 TPSG CA2 17489 -0.0753 12.010000
17490 ca 16305 TPSG CA1 17490 -0.361 12.010000
17491 si 16305 TPSG Si 17491 1.1 28.085000
17492 ca 16305 TPSG CA6 17492 -0.0753 12.010000
17493 ha 16305 TPSG HH6 17493 0.1332 1.008000
17494 ca 16305 TPSG CA5 17494 -0.1548 12.010000
17495 ha 16305 TPSG HA5 17495 0.1282 1.008000
17496 ca 16305 TPSG CA4 17496 -0.1028 12.010000
17497 ha 16305 TPSG HA4 17497 0.1262 1.008000
17498 ca 16305 TPSG CA3 17498 -0.1548 12.010000
17499 ha 16305 TPSG HA3 17499 0.1282 1.008000
17500 OA 16305 TPSG O1 17500 -0.675000 15.99940
17501 HG 16305 TPSG H6 17501 0.400000 2.01600
17502 ha 16306 TPSG HA2 17502 0.1332 1.008000
17503 ca 16306 TPSG CA2 17503 -0.0753 12.010000
17504 ca 16306 TPSG CA1 17504 -0.361 12.010000
17505 si 16306 TPSG Si 17505 1.1 28.085000
17506 ca 16306 TPSG CA6 17506 -0.0753 12.010000
17507 ha 16306 TPSG HH6 17507 0.1332 1.008000
17508 ca 16306 TPSG CA5 17508 -0.1548 12.010000
17509 ha 16306 TPSG HA5 17509 0.1282 1.008000
17510 ca 16306 TPSG CA4 17510 -0.1028 12.010000
17511 ha 16306 TPSG HA4 17511 0.1262 1.008000
17512 ca 16306 TPSG CA3 17512 -0.1548 12.010000
17513 ha 16306 TPSG HA3 17513 0.1282 1.008000
17514 OA 16306 TPSG O1 17514 -0.675000 15.99940
17515 HG 16306 TPSG H6 17515 0.400000 2.01600
17516 ha 16307 TPSG HA2 17516 0.1332 1.008000
17517 ca 16307 TPSG CA2 17517 -0.0753 12.010000
17518 ca 16307 TPSG CA1 17518 -0.361 12.010000
17519 si 16307 TPSG Si 17519 1.1 28.085000
17520 ca 16307 TPSG CA6 17520 -0.0753 12.010000
17521 ha 16307 TPSG HH6 17521 0.1332 1.008000
17522 ca 16307 TPSG CA5 17522 -0.1548 12.010000
17523 ha 16307 TPSG HA5 17523 0.1282 1.008000
17524 ca 16307 TPSG CA4 17524 -0.1028 12.010000
17525 ha 16307 TPSG HA4 17525 0.1262 1.008000
17526 ca 16307 TPSG CA3 17526 -0.1548 12.010000
17527 ha 16307 TPSG HA3 17527 0.1282 1.008000
17528 OA 16307 TPSG O1 17528 -0.675000 15.99940
17529 HG 16307 TPSG H6 17529 0.400000 2.01600
17530 ha 16308 TPSG HA2 17530 0.1332 1.008000
17531 ca 16308 TPSG CA2 17531 -0.0753 12.010000
17532 ca 16308 TPSG CA1 17532 -0.361 12.010000
17533 si 16308 TPSG Si 17533 1.1 28.085000
17534 ca 16308 TPSG CA6 17534 -0.0753 12.010000
17535 ha 16308 TPSG HH6 17535 0.1332 1.008000
17536 ca 16308 TPSG CA5 17536 -0.1548 12.010000
17537 ha 16308 TPSG HA5 17537 0.1282 1.008000
17538 ca 16308 TPSG CA4 17538 -0.1028 12.010000
17539 ha 16308 TPSG HA4 17539 0.1262 1.008000
17540 ca 16308 TPSG CA3 17540 -0.1548 12.010000
17541 ha 16308 TPSG HA3 17541 0.1282 1.008000
17542 OA 16308 TPSG O1 17542 -0.675000 15.99940
17543 HG 16308 TPSG H6 17543 0.400000 2.01600
17544 ha 16309 TPSG HA2 17544 0.1332 1.008000
17545 ca 16309 TPSG CA2 17545 -0.0753 12.010000
17546 ca 16309 TPSG CA1 17546 -0.361 12.010000
17547 si 16309 TPSG Si 17547 1.1 28.085000
17548 ca 16309 TPSG CA6 17548 -0.0753 12.010000
17549 ha 16309 TPSG HH6 17549 0.1332 1.008000
17550 ca 16309 TPSG CA5 17550 -0.1548 12.010000
17551 ha 16309 TPSG HA5 17551 0.1282 1.008000
17552 ca 16309 TPSG CA4 17552 -0.1028 12.010000
17553 ha 16309 TPSG HA4 17553 0.1262 1.008000
17554 ca 16309 TPSG CA3 17554 -0.1548 12.010000
17555 ha 16309 TPSG HA3 17555 0.1282 1.008000
17556 OA 16309 TPSG O1 17556 -0.675000 15.99940
17557 HG 16309 TPSG H6 17557 0.400000 2.01600
17558 ha 16310 TPSG HA2 17558 0.1332 1.008000
17559 ca 16310 TPSG CA2 17559 -0.0753 12.010000
17560 ca 16310 TPSG CA1 17560 -0.361 12.010000
17561 si 16310 TPSG Si 17561 1.1 28.085000
17562 ca 16310 TPSG CA6 17562 -0.0753 12.010000
17563 ha 16310 TPSG HH6 17563 0.1332 1.008000
17564 ca 16310 TPSG CA5 17564 -0.1548 12.010000
17565 ha 16310 TPSG HA5 17565 0.1282 1.008000
17566 ca 16310 TPSG CA4 17566 -0.1028 12.010000
17567 ha 16310 TPSG HA4 17567 0.1262 1.008000
17568 ca 16310 TPSG CA3 17568 -0.1548 12.010000
17569 ha 16310 TPSG HA3 17569 0.1282 1.008000
17570 OA 16310 TPSG O1 17570 -0.675000 15.99940
17571 HG 16310 TPSG H6 17571 0.400000 2.01600
17572 ha 16311 TPSG HA2 17572 0.1332 1.008000
17573 ca 16311 TPSG CA2 17573 -0.0753 12.010000
17574 ca 16311 TPSG CA1 17574 -0.361 12.010000
17575 si 16311 TPSG Si 17575 1.1 28.085000
17576 ca 16311 TPSG CA6 17576 -0.0753 12.010000
17577 ha 16311 TPSG HH6 17577 0.1332 1.008000
17578 ca 16311 TPSG CA5 17578 -0.1548 12.010000
17579 ha 16311 TPSG HA5 17579 0.1282 1.008000
17580 ca 16311 TPSG CA4 17580 -0.1028 12.010000
17581 ha 16311 TPSG HA4 17581 0.1262 1.008000
17582 ca 16311 TPSG CA3 17582 -0.1548 12.010000
17583 ha 16311 TPSG HA3 17583 0.1282 1.008000
17584 OA 16311 TPSG O1 17584 -0.675000 15.99940
17585 HG 16311 TPSG H6 17585 0.400000 2.01600
17586 ha 16312 TPSG HA2 17586 0.1332 1.008000
17587 ca 16312 TPSG CA2 17587 -0.0753 12.010000
17588 ca 16312 TPSG CA1 17588 -0.361 12.010000
17589 si 16312 TPSG Si 17589 1.1 28.085000
17590 ca 16312 TPSG CA6 17590 -0.0753 12.010000
17591 ha 16312 TPSG HH6 17591 0.1332 1.008000
17592 ca 16312 TPSG CA5 17592 -0.1548 12.010000
17593 ha 16312 TPSG HA5 17593 0.1282 1.008000
17594 ca 16312 TPSG CA4 17594 -0.1028 12.010000
17595 ha 16312 TPSG HA4 17595 0.1262 1.008000
17596 ca 16312 TPSG CA3 17596 -0.1548 12.010000
17597 ha 16312 TPSG HA3 17597 0.1282 1.008000
17598 OA 16312 TPSG O1 17598 -0.675000 15.99940
17599 HG 16312 TPSG H6 17599 0.400000 2.01600
17600 ha 16313 TPSG HA2 17600 0.1332 1.008000
17601 ca 16313 TPSG CA2 17601 -0.0753 12.010000
17602 ca 16313 TPSG CA1 17602 -0.361 12.010000
17603 si 16313 TPSG Si 17603 1.1 28.085000
17604 ca 16313 TPSG CA6 17604 -0.0753 12.010000
17605 ha 16313 TPSG HH6 17605 0.1332 1.008000
17606 ca 16313 TPSG CA5 17606 -0.1548 12.010000
17607 ha 16313 TPSG HA5 17607 0.1282 1.008000
17608 ca 16313 TPSG CA4 17608 -0.1028 12.010000
17609 ha 16313 TPSG HA4 17609 0.1262 1.008000
17610 ca 16313 TPSG CA3 17610 -0.1548 12.010000
17611 ha 16313 TPSG HA3 17611 0.1282 1.008000
17612 OA 16313 TPSG O1 17612 -0.675000 15.99940
17613 HG 16313 TPSG H6 17613 0.400000 2.01600
17614 ha 16314 TPSG HA2 17614 0.1332 1.008000
17615 ca 16314 TPSG CA2 17615 -0.0753 12.010000
17616 ca 16314 TPSG CA1 17616 -0.361 12.010000
17617 si 16314 TPSG Si 17617 1.1 28.085000
17618 ca 16314 TPSG CA6 17618 -0.0753 12.010000
17619 ha 16314 TPSG HH6 17619 0.1332 1.008000
17620 ca 16314 TPSG CA5 17620 -0.1548 12.010000
17621 ha 16314 TPSG HA5 17621 0.1282 1.008000
17622 ca 16314 TPSG CA4 17622 -0.1028 12.010000
17623 ha 16314 TPSG HA4 17623 0.1262 1.008000
17624 ca 16314 TPSG CA3 17624 -0.1548 12.010000
17625 ha 16314 TPSG HA3 17625 0.1282 1.008000
17626 OA 16314 TPSG O1 17626 -0.675000 15.99940
17627 HG 16314 TPSG H6 17627 0.400000 2.01600
17628 ha 16315 TPSG HA2 17628 0.1332 1.008000
17629 ca 16315 TPSG CA2 17629 -0.0753 12.010000
17630 ca 16315 TPSG CA1 17630 -0.361 12.010000
17631 si 16315 TPSG Si 17631 1.1 28.085000
17632 ca 16315 TPSG CA6 17632 -0.0753 12.010000
17633 ha 16315 TPSG HH6 17633 0.1332 1.008000
17634 ca 16315 TPSG CA5 17634 -0.1548 12.010000
17635 ha 16315 TPSG HA5 17635 0.1282 1.008000
17636 ca 16315 TPSG CA4 17636 -0.1028 12.010000
17637 ha 16315 TPSG HA4 17637 0.1262 1.008000
17638 ca 16315 TPSG CA3 17638 -0.1548 12.010000
17639 ha 16315 TPSG HA3 17639 0.1282 1.008000
17640 OA 16315 TPSG O1 17640 -0.675000 15.99940
17641 HG 16315 TPSG H6 17641 0.400000 2.01600
17642 ha 16316 TPSG HA2 17642 0.1332 1.008000
17643 ca 16316 TPSG CA2 17643 -0.0753 12.010000
17644 ca 16316 TPSG CA1 17644 -0.361 12.010000
17645 si 16316 TPSG Si 17645 1.1 28.085000
17646 ca 16316 TPSG CA6 17646 -0.0753 12.010000
17647 ha 16316 TPSG HH6 17647 0.1332 1.008000
17648 ca 16316 TPSG CA5 17648 -0.1548 12.010000
17649 ha 16316 TPSG HA5 17649 0.1282 1.008000
17650 ca 16316 TPSG CA4 17650 -0.1028 12.010000
17651 ha 16316 TPSG HA4 17651 0.1262 1.008000
17652 ca 16316 TPSG CA3 17652 -0.1548 12.010000
17653 ha 16316 TPSG HA3 17653 0.1282 1.008000
17654 OA 16316 TPSG O1 17654 -0.675000 15.99940
17655 HG 16316 TPSG H6 17655 0.400000 2.01600
17656 ha 16317 TPSG HA2 17656 0.1332 1.008000
17657 ca 16317 TPSG CA2 17657 -0.0753 12.010000
17658 ca 16317 TPSG CA1 17658 -0.361 12.010000
17659 si 16317 TPSG Si 17659 1.1 28.085000
17660 ca 16317 TPSG CA6 17660 -0.0753 12.010000
17661 ha 16317 TPSG HH6 17661 0.1332 1.008000
17662 ca 16317 TPSG CA5 17662 -0.1548 12.010000
17663 ha 16317 TPSG HA5 17663 0.1282 1.008000
17664 ca 16317 TPSG CA4 17664 -0.1028 12.010000
17665 ha 16317 TPSG HA4 17665 0.1262 1.008000
17666 ca 16317 TPSG CA3 17666 -0.1548 12.010000
17667 ha 16317 TPSG HA3 17667 0.1282 1.008000
17668 OA 16317 TPSG O1 17668 -0.675000 15.99940
17669 HG 16317 TPSG H6 17669 0.400000 2.01600
17670 ha 16318 TPSG HA2 17670 0.1332 1.008000
17671 ca 16318 TPSG CA2 17671 -0.0753 12.010000
17672 ca 16318 TPSG CA1 17672 -0.361 12.010000
17673 si 16318 TPSG Si 17673 1.1 28.085000
17674 ca 16318 TPSG CA6 17674 -0.0753 12.010000
17675 ha 16318 TPSG HH6 17675 0.1332 1.008000
17676 ca 16318 TPSG CA5 17676 -0.1548 12.010000
17677 ha 16318 TPSG HA5 17677 0.1282 1.008000
17678 ca 16318 TPSG CA4 17678 -0.1028 12.010000
17679 ha 16318 TPSG HA4 17679 0.1262 1.008000
17680 ca 16318 TPSG CA3 17680 -0.1548 12.010000
17681 ha 16318 TPSG HA3 17681 0.1282 1.008000
17682 OA 16318 TPSG O1 17682 -0.675000 15.99940
17683 HG 16318 TPSG H6 17683 0.400000 2.01600
17684 ha 16319 TPSG HA2 17684 0.1332 1.008000
17685 ca 16319 TPSG CA2 17685 -0.0753 12.010000
17686 ca 16319 TPSG CA1 17686 -0.361 12.010000
17687 si 16319 TPSG Si 17687 1.1 28.085000
17688 ca 16319 TPSG CA6 17688 -0.0753 12.010000
17689 ha 16319 TPSG HH6 17689 0.1332 1.008000
17690 ca 16319 TPSG CA5 17690 -0.1548 12.010000
17691 ha 16319 TPSG HA5 17691 0.1282 1.008000
17692 ca 16319 TPSG CA4 17692 -0.1028 12.010000
17693 ha 16319 TPSG HA4 17693 0.1262 1.008000
17694 ca 16319 TPSG CA3 17694 -0.1548 12.010000
17695 ha 16319 TPSG HA3 17695 0.1282 1.008000
17696 OA 16319 TPSG O1 17696 -0.675000 15.99940
17697 HG 16319 TPSG H6 17697 0.400000 2.01600
17698 ha 16320 TPSG HA2 17698 0.1332 1.008000
17699 ca 16320 TPSG CA2 17699 -0.0753 12.010000
17700 ca 16320 TPSG CA1 17700 -0.361 12.010000
17701 si 16320 TPSG Si 17701 1.1 28.085000
17702 ca 16320 TPSG CA6 17702 -0.0753 12.010000
17703 ha 16320 TPSG HH6 17703 0.1332 1.008000
17704 ca 16320 TPSG CA5 17704 -0.1548 12.010000
17705 ha 16320 TPSG HA5 17705 0.1282 1.008000
17706 ca 16320 TPSG CA4 17706 -0.1028 12.010000
17707 ha 16320 TPSG HA4 17707 0.1262 1.008000
17708 ca 16320 TPSG CA3 17708 -0.1548 12.010000
17709 ha 16320 TPSG HA3 17709 0.1282 1.008000
17710 OA 16320 TPSG O1 17710 -0.675000 15.99940
17711 HG 16320 TPSG H6 17711 0.400000 2.01600
17712 ha 16321 TPSG HA2 17712 0.1332 1.008000
17713 ca 16321 TPSG CA2 17713 -0.0753 12.010000
17714 ca 16321 TPSG CA1 17714 -0.361 12.010000
17715 si 16321 TPSG Si 17715 1.1 28.085000
17716 ca 16321 TPSG CA6 17716 -0.0753 12.010000
17717 ha 16321 TPSG HH6 17717 0.1332 1.008000
17718 ca 16321 TPSG CA5 17718 -0.1548 12.010000
17719 ha 16321 TPSG HA5 17719 0.1282 1.008000
17720 ca 16321 TPSG CA4 17720 -0.1028 12.010000
17721 ha 16321 TPSG HA4 17721 0.1262 1.008000
17722 ca 16321 TPSG CA3 17722 -0.1548 12.010000
17723 ha 16321 TPSG HA3 17723 0.1282 1.008000
17724 OA 16321 TPSG O1 17724 -0.675000 15.99940
17725 HG 16321 TPSG H6 17725 0.400000 2.01600
17726 ha 16322 TPSG HA2 17726 0.1332 1.008000
17727 ca 16322 TPSG CA2 17727 -0.0753 12.010000
17728 ca 16322 TPSG CA1 17728 -0.361 12.010000
17729 si 16322 TPSG Si 17729 1.1 28.085000
17730 ca 16322 TPSG CA6 17730 -0.0753 12.010000
17731 ha 16322 TPSG HH6 17731 0.1332 1.008000
17732 ca 16322 TPSG CA5 17732 -0.1548 12.010000
17733 ha 16322 TPSG HA5 17733 0.1282 1.008000
17734 ca 16322 TPSG CA4 17734 -0.1028 12.010000
17735 ha 16322 TPSG HA4 17735 0.1262 1.008000
17736 ca 16322 TPSG CA3 17736 -0.1548 12.010000
17737 ha 16322 TPSG HA3 17737 0.1282 1.008000
17738 OA 16322 TPSG O1 17738 -0.675000 15.99940
17739 HG 16322 TPSG H6 17739 0.400000 2.01600
17740 ha 16323 TPSG HA2 17740 0.1332 1.008000
17741 ca 16323 TPSG CA2 17741 -0.0753 12.010000
17742 ca 16323 TPSG CA1 17742 -0.361 12.010000
17743 si 16323 TPSG Si 17743 1.1 28.085000
17744 ca 16323 TPSG CA6 17744 -0.0753 12.010000
17745 ha 16323 TPSG HH6 17745 0.1332 1.008000
17746 ca 16323 TPSG CA5 17746 -0.1548 12.010000
17747 ha 16323 TPSG HA5 17747 0.1282 1.008000
17748 ca 16323 TPSG CA4 17748 -0.1028 12.010000
17749 ha 16323 TPSG HA4 17749 0.1262 1.008000
17750 ca 16323 TPSG CA3 17750 -0.1548 12.010000
17751 ha 16323 TPSG HA3 17751 0.1282 1.008000
17752 OA 16323 TPSG O1 17752 -0.675000 15.99940
17753 HG 16323 TPSG H6 17753 0.400000 2.01600
17754 ha 16324 TPSG HA2 17754 0.1332 1.008000
17755 ca 16324 TPSG CA2 17755 -0.0753 12.010000
17756 ca 16324 TPSG CA1 17756 -0.361 12.010000
17757 si 16324 TPSG Si 17757 1.1 28.085000
17758 ca 16324 TPSG CA6 17758 -0.0753 12.010000
17759 ha 16324 TPSG HH6 17759 0.1332 1.008000
17760 ca 16324 TPSG CA5 17760 -0.1548 12.010000
17761 ha 16324 TPSG HA5 17761 0.1282 1.008000
17762 ca 16324 TPSG CA4 17762 -0.1028 12.010000
17763 ha 16324 TPSG HA4 17763 0.1262 1.008000
17764 ca 16324 TPSG CA3 17764 -0.1548 12.010000
17765 ha 16324 TPSG HA3 17765 0.1282 1.008000
17766 OA 16324 TPSG O1 17766 -0.675000 15.99940
17767 HG 16324 TPSG H6 17767 0.400000 2.01600
17768 ha 16325 TPSG HA2 17768 0.1332 1.008000
17769 ca 16325 TPSG CA2 17769 -0.0753 12.010000
17770 ca 16325 TPSG CA1 17770 -0.361 12.010000
17771 si 16325 TPSG Si 17771 1.1 28.085000
17772 ca 16325 TPSG CA6 17772 -0.0753 12.010000
17773 ha 16325 TPSG HH6 17773 0.1332 1.008000
17774 ca 16325 TPSG CA5 17774 -0.1548 12.010000
17775 ha 16325 TPSG HA5 17775 0.1282 1.008000
17776 ca 16325 TPSG CA4 17776 -0.1028 12.010000
17777 ha 16325 TPSG HA4 17777 0.1262 1.008000
17778 ca 16325 TPSG CA3 17778 -0.1548 12.010000
17779 ha 16325 TPSG HA3 17779 0.1282 1.008000
17780 OA 16325 TPSG O1 17780 -0.675000 15.99940
17781 HG 16325 TPSG H6 17781 0.400000 2.01600
17782 ha 16326 TPSG HA2 17782 0.1332 1.008000
17783 ca 16326 TPSG CA2 17783 -0.0753 12.010000
17784 ca 16326 TPSG CA1 17784 -0.361 12.010000
17785 si 16326 TPSG Si 17785 1.1 28.085000
17786 ca 16326 TPSG CA6 17786 -0.0753 12.010000
17787 ha 16326 TPSG HH6 17787 0.1332 1.008000
17788 ca 16326 TPSG CA5 17788 -0.1548 12.010000
17789 ha 16326 TPSG HA5 17789 0.1282 1.008000
17790 ca 16326 TPSG CA4 17790 -0.1028 12.010000
17791 ha 16326 TPSG HA4 17791 0.1262 1.008000
17792 ca 16326 TPSG CA3 17792 -0.1548 12.010000
17793 ha 16326 TPSG HA3 17793 0.1282 1.008000
17794 OA 16326 TPSG O1 17794 -0.675000 15.99940
17795 HG 16326 TPSG H6 17795 0.400000 2.01600
17796 ha 16327 TPSG HA2 17796 0.1332 1.008000
17797 ca 16327 TPSG CA2 17797 -0.0753 12.010000
17798 ca 16327 TPSG CA1 17798 -0.361 12.010000
17799 si 16327 TPSG Si 17799 1.1 28.085000
17800 ca 16327 TPSG CA6 17800 -0.0753 12.010000
17801 ha 16327 TPSG HH6 17801 0.1332 1.008000
17802 ca 16327 TPSG CA5 17802 -0.1548 12.010000
17803 ha 16327 TPSG HA5 17803 0.1282 1.008000
17804 ca 16327 TPSG CA4 17804 -0.1028 12.010000
17805 ha 16327 TPSG HA4 17805 0.1262 1.008000
17806 ca 16327 TPSG CA3 17806 -0.1548 12.010000
17807 ha 16327 TPSG HA3 17807 0.1282 1.008000
17808 OA 16327 TPSG O1 17808 -0.675000 15.99940
17809 HG 16327 TPSG H6 17809 0.400000 2.01600
17810 ha 16328 TPSG HA2 17810 0.1332 1.008000
17811 ca 16328 TPSG CA2 17811 -0.0753 12.010000
17812 ca 16328 TPSG CA1 17812 -0.361 12.010000
17813 si 16328 TPSG Si 17813 1.1 28.085000
17814 ca 16328 TPSG CA6 17814 -0.0753 12.010000
17815 ha 16328 TPSG HH6 17815 0.1332 1.008000
17816 ca 16328 TPSG CA5 17816 -0.1548 12.010000
17817 ha 16328 TPSG HA5 17817 0.1282 1.008000
17818 ca 16328 TPSG CA4 17818 -0.1028 12.010000
17819 ha 16328 TPSG HA4 17819 0.1262 1.008000
17820 ca 16328 TPSG CA3 17820 -0.1548 12.010000
17821 ha 16328 TPSG HA3 17821 0.1282 1.008000
17822 OA 16328 TPSG O1 17822 -0.675000 15.99940
17823 HG 16328 TPSG H6 17823 0.400000 2.01600
17824 ha 16329 TPSG HA2 17824 0.1332 1.008000
17825 ca 16329 TPSG CA2 17825 -0.0753 12.010000
17826 ca 16329 TPSG CA1 17826 -0.361 12.010000
17827 si 16329 TPSG Si 17827 1.1 28.085000
17828 ca 16329 TPSG CA6 17828 -0.0753 12.010000
17829 ha 16329 TPSG HH6 17829 0.1332 1.008000
17830 ca 16329 TPSG CA5 17830 -0.1548 12.010000
17831 ha 16329 TPSG HA5 17831 0.1282 1.008000
17832 ca 16329 TPSG CA4 17832 -0.1028 12.010000
17833 ha 16329 TPSG HA4 17833 0.1262 1.008000
17834 ca 16329 TPSG CA3 17834 -0.1548 12.010000
17835 ha 16329 TPSG HA3 17835 0.1282 1.008000
17836 OA 16329 TPSG O1 17836 -0.675000 15.99940
17837 HG 16329 TPSG H6 17837 0.400000 2.01600
17838 ha 16330 TPSG HA2 17838 0.1332 1.008000
17839 ca 16330 TPSG CA2 17839 -0.0753 12.010000
17840 ca 16330 TPSG CA1 17840 -0.361 12.010000
17841 si 16330 TPSG Si 17841 1.1 28.085000
17842 ca 16330 TPSG CA6 17842 -0.0753 12.010000
17843 ha 16330 TPSG HH6 17843 0.1332 1.008000
17844 ca 16330 TPSG CA5 17844 -0.1548 12.010000
17845 ha 16330 TPSG HA5 17845 0.1282 1.008000
17846 ca 16330 TPSG CA4 17846 -0.1028 12.010000
17847 ha 16330 TPSG HA4 17847 0.1262 1.008000
17848 ca 16330 TPSG CA3 17848 -0.1548 12.010000
17849 ha 16330 TPSG HA3 17849 0.1282 1.008000
17850 OA 16330 TPSG O1 17850 -0.675000 15.99940
17851 HG 16330 TPSG H6 17851 0.400000 2.01600
17852 ha 16331 TPSG HA2 17852 0.1332 1.008000
17853 ca 16331 TPSG CA2 17853 -0.0753 12.010000
17854 ca 16331 TPSG CA1 17854 -0.361 12.010000
17855 si 16331 TPSG Si 17855 1.1 28.085000
17856 ca 16331 TPSG CA6 17856 -0.0753 12.010000
17857 ha 16331 TPSG HH6 17857 0.1332 1.008000
17858 ca 16331 TPSG CA5 17858 -0.1548 12.010000
17859 ha 16331 TPSG HA5 17859 0.1282 1.008000
17860 ca 16331 TPSG CA4 17860 -0.1028 12.010000
17861 ha 16331 TPSG HA4 17861 0.1262 1.008000
17862 ca 16331 TPSG CA3 17862 -0.1548 12.010000
17863 ha 16331 TPSG HA3 17863 0.1282 1.008000
17864 OA 16331 TPSG O1 17864 -0.675000 15.99940
17865 HG 16331 TPSG H6 17865 0.400000 2.01600
17866 ha 16332 TPSG HA2 17866 0.1332 1.008000
17867 ca 16332 TPSG CA2 17867 -0.0753 12.010000
17868 ca 16332 TPSG CA1 17868 -0.361 12.010000
17869 si 16332 TPSG Si 17869 1.1 28.085000
17870 ca 16332 TPSG CA6 17870 -0.0753 12.010000
17871 ha 16332 TPSG HH6 17871 0.1332 1.008000
17872 ca 16332 TPSG CA5 17872 -0.1548 12.010000
17873 ha 16332 TPSG HA5 17873 0.1282 1.008000
17874 ca 16332 TPSG CA4 17874 -0.1028 12.010000
17875 ha 16332 TPSG HA4 17875 0.1262 1.008000
17876 ca 16332 TPSG CA3 17876 -0.1548 12.010000
17877 ha 16332 TPSG HA3 17877 0.1282 1.008000
17878 OA 16332 TPSG O1 17878 -0.675000 15.99940
17879 HG 16332 TPSG H6 17879 0.400000 2.01600
17880 ha 16333 TPSG HA2 17880 0.1332 1.008000
17881 ca 16333 TPSG CA2 17881 -0.0753 12.010000
17882 ca 16333 TPSG CA1 17882 -0.361 12.010000
17883 si 16333 TPSG Si 17883 1.1 28.085000
17884 ca 16333 TPSG CA6 17884 -0.0753 12.010000
17885 ha 16333 TPSG HH6 17885 0.1332 1.008000
17886 ca 16333 TPSG CA5 17886 -0.1548 12.010000
17887 ha 16333 TPSG HA5 17887 0.1282 1.008000
17888 ca 16333 TPSG CA4 17888 -0.1028 12.010000
17889 ha 16333 TPSG HA4 17889 0.1262 1.008000
17890 ca 16333 TPSG CA3 17890 -0.1548 12.010000
17891 ha 16333 TPSG HA3 17891 0.1282 1.008000
17892 OA 16333 TPSG O1 17892 -0.675000 15.99940
17893 HG 16333 TPSG H6 17893 0.400000 2.01600
17894 ha 16334 TPSG HA2 17894 0.1332 1.008000
17895 ca 16334 TPSG CA2 17895 -0.0753 12.010000
17896 ca 16334 TPSG CA1 17896 -0.361 12.010000
17897 si 16334 TPSG Si 17897 1.1 28.085000
17898 ca 16334 TPSG CA6 17898 -0.0753 12.010000
17899 ha 16334 TPSG HH6 17899 0.1332 1.008000
17900 ca 16334 TPSG CA5 17900 -0.1548 12.010000
17901 ha 16334 TPSG HA5 17901 0.1282 1.008000
17902 ca 16334 TPSG CA4 17902 -0.1028 12.010000
17903 ha 16334 TPSG HA4 17903 0.1262 1.008000
17904 ca 16334 TPSG CA3 17904 -0.1548 12.010000
17905 ha 16334 TPSG HA3 17905 0.1282 1.008000
17906 OA 16334 TPSG O1 17906 -0.675000 15.99940
17907 HG 16334 TPSG H6 17907 0.400000 2.01600
17908 ha 16335 TPSG HA2 17908 0.1332 1.008000
17909 ca 16335 TPSG CA2 17909 -0.0753 12.010000
17910 ca 16335 TPSG CA1 17910 -0.361 12.010000
17911 si 16335 TPSG Si 17911 1.1 28.085000
17912 ca 16335 TPSG CA6 17912 -0.0753 12.010000
17913 ha 16335 TPSG HH6 17913 0.1332 1.008000
17914 ca 16335 TPSG CA5 17914 -0.1548 12.010000
17915 ha 16335 TPSG HA5 17915 0.1282 1.008000
17916 ca 16335 TPSG CA4 17916 -0.1028 12.010000
17917 ha 16335 TPSG HA4 17917 0.1262 1.008000
17918 ca 16335 TPSG CA3 17918 -0.1548 12.010000
17919 ha 16335 TPSG HA3 17919 0.1282 1.008000
17920 OA 16335 TPSG O1 17920 -0.675000 15.99940
17921 HG 16335 TPSG H6 17921 0.400000 2.01600
17922 ha 16336 TPSG HA2 17922 0.1332 1.008000
17923 ca 16336 TPSG CA2 17923 -0.0753 12.010000
17924 ca 16336 TPSG CA1 17924 -0.361 12.010000
17925 si 16336 TPSG Si 17925 1.1 28.085000
17926 ca 16336 TPSG CA6 17926 -0.0753 12.010000
17927 ha 16336 TPSG HH6 17927 0.1332 1.008000
17928 ca 16336 TPSG CA5 17928 -0.1548 12.010000
17929 ha 16336 TPSG HA5 17929 0.1282 1.008000
17930 ca 16336 TPSG CA4 17930 -0.1028 12.010000
17931 ha 16336 TPSG HA4 17931 0.1262 1.008000
17932 ca 16336 TPSG CA3 17932 -0.1548 12.010000
17933 ha 16336 TPSG HA3 17933 0.1282 1.008000
17934 OA 16336 TPSG O1 17934 -0.675000 15.99940
17935 HG 16336 TPSG H6 17935 0.400000 2.01600
17936 ha 16337 TPSG HA2 17936 0.1332 1.008000
17937 ca 16337 TPSG CA2 17937 -0.0753 12.010000
17938 ca 16337 TPSG CA1 17938 -0.361 12.010000
17939 si 16337 TPSG Si 17939 1.1 28.085000
17940 ca 16337 TPSG CA6 17940 -0.0753 12.010000
17941 ha 16337 TPSG HH6 17941 0.1332 1.008000
17942 ca 16337 TPSG CA5 17942 -0.1548 12.010000
17943 ha 16337 TPSG HA5 17943 0.1282 1.008000
17944 ca 16337 TPSG CA4 17944 -0.1028 12.010000
17945 ha 16337 TPSG HA4 17945 0.1262 1.008000
17946 ca 16337 TPSG CA3 17946 -0.1548 12.010000
17947 ha 16337 TPSG HA3 17947 0.1282 1.008000
17948 OA 16337 TPSG O1 17948 -0.675000 15.99940
17949 HG 16337 TPSG H6 17949 0.400000 2.01600
17950 ha 16338 TPSG HA2 17950 0.1332 1.008000
17951 ca 16338 TPSG CA2 17951 -0.0753 12.010000
17952 ca 16338 TPSG CA1 17952 -0.361 12.010000
17953 si 16338 TPSG Si 17953 1.1 28.085000
17954 ca 16338 TPSG CA6 17954 -0.0753 12.010000
17955 ha 16338 TPSG HH6 17955 0.1332 1.008000
17956 ca 16338 TPSG CA5 17956 -0.1548 12.010000
17957 ha 16338 TPSG HA5 17957 0.1282 1.008000
17958 ca 16338 TPSG CA4 17958 -0.1028 12.010000
17959 ha 16338 TPSG HA4 17959 0.1262 1.008000
17960 ca 16338 TPSG CA3 17960 -0.1548 12.010000
17961 ha 16338 TPSG HA3 17961 0.1282 1.008000
17962 OA 16338 TPSG O1 17962 -0.675000 15.99940
17963 HG 16338 TPSG H6 17963 0.400000 2.01600
17964 ha 16339 TPSG HA2 17964 0.1332 1.008000
17965 ca 16339 TPSG CA2 17965 -0.0753 12.010000
17966 ca 16339 TPSG CA1 17966 -0.361 12.010000
17967 si 16339 TPSG Si 17967 1.1 28.085000
17968 ca 16339 TPSG CA6 17968 -0.0753 12.010000
17969 ha 16339 TPSG HH6 17969 0.1332 1.008000
17970 ca 16339 TPSG CA5 17970 -0.1548 12.010000
17971 ha 16339 TPSG HA5 17971 0.1282 1.008000
17972 ca 16339 TPSG CA4 17972 -0.1028 12.010000
17973 ha 16339 TPSG HA4 17973 0.1262 1.008000
17974 ca 16339 TPSG CA3 17974 -0.1548 12.010000
17975 ha 16339 TPSG HA3 17975 0.1282 1.008000
17976 OA 16339 TPSG O1 17976 -0.675000 15.99940
17977 HG 16339 TPSG H6 17977 0.400000 2.01600
17978 ha 16340 TPSG HA2 17978 0.1332 1.008000
17979 ca 16340 TPSG CA2 17979 -0.0753 12.010000
17980 ca 16340 TPSG CA1 17980 -0.361 12.010000
17981 si 16340 TPSG Si 17981 1.1 28.085000
17982 ca 16340 TPSG CA6 17982 -0.0753 12.010000
17983 ha 16340 TPSG HH6 17983 0.1332 1.008000
17984 ca 16340 TPSG CA5 17984 -0.1548 12.010000
17985 ha 16340 TPSG HA5 17985 0.1282 1.008000
17986 ca 16340 TPSG CA4 17986 -0.1028 12.010000
17987 ha 16340 TPSG HA4 17987 0.1262 1.008000
17988 ca 16340 TPSG CA3 17988 -0.1548 12.010000
17989 ha 16340 TPSG HA3 17989 0.1282 1.008000
17990 OA 16340 TPSG O1 17990 -0.675000 15.99940
17991 HG 16340 TPSG H6 17991 0.400000 2.01600
17992 ha 16341 TPSG HA2 17992 0.1332 1.008000
17993 ca 16341 TPSG CA2 17993 -0.0753 12.010000
17994 ca 16341 TPSG CA1 17994 -0.361 12.010000
17995 si 16341 TPSG Si 17995 1.1 28.085000
17996 ca 16341 TPSG CA6 17996 -0.0753 12.010000
17997 ha 16341 TPSG HH6 17997 0.1332 1.008000
17998 ca 16341 TPSG CA5 17998 -0.1548 12.010000
17999 ha 16341 TPSG HA5 17999 0.1282 1.008000
18000 ca 16341 TPSG CA4 18000 -0.1028 12.010000
18001 ha 16341 TPSG HA4 18001 0.1262 1.008000
18002 ca 16341 TPSG CA3 18002 -0.1548 12.010000
18003 ha 16341 TPSG HA3 18003 0.1282 1.008000
18004 OA 16341 TPSG O1 18004 -0.675000 15.99940
18005 HG 16341 TPSG H6 18005 0.400000 2.01600
18006 ha 16342 TPSG HA2 18006 0.1332 1.008000
18007 ca 16342 TPSG CA2 18007 -0.0753 12.010000
18008 ca 16342 TPSG CA1 18008 -0.361 12.010000
18009 si 16342 TPSG Si 18009 1.1 28.085000
18010 ca 16342 TPSG CA6 18010 -0.0753 12.010000
18011 ha 16342 TPSG HH6 18011 0.1332 1.008000
18012 ca 16342 TPSG CA5 18012 -0.1548 12.010000
18013 ha 16342 TPSG HA5 18013 0.1282 1.008000
18014 ca 16342 TPSG CA4 18014 -0.1028 12.010000
18015 ha 16342 TPSG HA4 18015 0.1262 1.008000
18016 ca 16342 TPSG CA3 18016 -0.1548 12.010000
18017 ha 16342 TPSG HA3 18017 0.1282 1.008000
18018 OA 16342 TPSG O1 18018 -0.675000 15.99940
18019 HG 16342 TPSG H6 18019 0.400000 2.01600
18020 ha 16343 TPSG HA2 18020 0.1332 1.008000
18021 ca 16343 TPSG CA2 18021 -0.0753 12.010000
18022 ca 16343 TPSG CA1 18022 -0.361 12.010000
18023 si 16343 TPSG Si 18023 1.1 28.085000
18024 ca 16343 TPSG CA6 18024 -0.0753 12.010000
18025 ha 16343 TPSG HH6 18025 0.1332 1.008000
18026 ca 16343 TPSG CA5 18026 -0.1548 12.010000
18027 ha 16343 TPSG HA5 18027 0.1282 1.008000
18028 ca 16343 TPSG CA4 18028 -0.1028 12.010000
18029 ha 16343 TPSG HA4 18029 0.1262 1.008000
18030 ca 16343 TPSG CA3 18030 -0.1548 12.010000
18031 ha 16343 TPSG HA3 18031 0.1282 1.008000
18032 OA 16343 TPSG O1 18032 -0.675000 15.99940
18033 HG 16343 TPSG H6 18033 0.400000 2.01600
18034 ha 16344 TPSG HA2 18034 0.1332 1.008000
18035 ca 16344 TPSG CA2 18035 -0.0753 12.010000
18036 ca 16344 TPSG CA1 18036 -0.361 12.010000
18037 si 16344 TPSG Si 18037 1.1 28.085000
18038 ca 16344 TPSG CA6 18038 -0.0753 12.010000
18039 ha 16344 TPSG HH6 18039 0.1332 1.008000
18040 ca 16344 TPSG CA5 18040 -0.1548 12.010000
18041 ha 16344 TPSG HA5 18041 0.1282 1.008000
18042 ca 16344 TPSG CA4 18042 -0.1028 12.010000
18043 ha 16344 TPSG HA4 18043 0.1262 1.008000
18044 ca 16344 TPSG CA3 18044 -0.1548 12.010000
18045 ha 16344 TPSG HA3 18045 0.1282 1.008000
18046 OA 16344 TPSG O1 18046 -0.675000 15.99940
18047 HG 16344 TPSG H6 18047 0.400000 2.01600
18048 ha 16345 TPSG HA2 18048 0.1332 1.008000
18049 ca 16345 TPSG CA2 18049 -0.0753 12.010000
18050 ca 16345 TPSG CA1 18050 -0.361 12.010000
18051 si 16345 TPSG Si 18051 1.1 28.085000
18052 ca 16345 TPSG CA6 18052 -0.0753 12.010000
18053 ha 16345 TPSG HH6 18053 0.1332 1.008000
18054 ca 16345 TPSG CA5 18054 -0.1548 12.010000
18055 ha 16345 TPSG HA5 18055 0.1282 1.008000
18056 ca 16345 TPSG CA4 18056 -0.1028 12.010000
18057 ha 16345 TPSG HA4 18057 0.1262 1.008000
18058 ca 16345 TPSG CA3 18058 -0.1548 12.010000
18059 ha 16345 TPSG HA3 18059 0.1282 1.008000
18060 OA 16345 TPSG O1 18060 -0.675000 15.99940
18061 HG 16345 TPSG H6 18061 0.400000 2.01600
18062 ha 16346 TPSG HA2 18062 0.1332 1.008000
18063 ca 16346 TPSG CA2 18063 -0.0753 12.010000
18064 ca 16346 TPSG CA1 18064 -0.361 12.010000
18065 si 16346 TPSG Si 18065 1.1 28.085000
18066 ca 16346 TPSG CA6 18066 -0.0753 12.010000
18067 ha 16346 TPSG HH6 18067 0.1332 1.008000
18068 ca 16346 TPSG CA5 18068 -0.1548 12.010000
18069 ha 16346 TPSG HA5 18069 0.1282 1.008000
18070 ca 16346 TPSG CA4 18070 -0.1028 12.010000
18071 ha 16346 TPSG HA4 18071 0.1262 1.008000
18072 ca 16346 TPSG CA3 18072 -0.1548 12.010000
18073 ha 16346 TPSG HA3 18073 0.1282 1.008000
18074 OA 16346 TPSG O1 18074 -0.675000 15.99940
18075 HG 16346 TPSG H6 18075 0.400000 2.01600
18076 ha 16347 TPSG HA2 18076 0.1332 1.008000
18077 ca 16347 TPSG CA2 18077 -0.0753 12.010000
18078 ca 16347 TPSG CA1 18078 -0.361 12.010000
18079 si 16347 TPSG Si 18079 1.1 28.085000
18080 ca 16347 TPSG CA6 18080 -0.0753 12.010000
18081 ha 16347 TPSG HH6 18081 0.1332 1.008000
18082 ca 16347 TPSG CA5 18082 -0.1548 12.010000
18083 ha 16347 TPSG HA5 18083 0.1282 1.008000
18084 ca 16347 TPSG CA4 18084 -0.1028 12.010000
18085 ha 16347 TPSG HA4 18085 0.1262 1.008000
18086 ca 16347 TPSG CA3 18086 -0.1548 12.010000
18087 ha 16347 TPSG HA3 18087 0.1282 1.008000
18088 OA 16347 TPSG O1 18088 -0.675000 15.99940
18089 HG 16347 TPSG H6 18089 0.400000 2.01600
18090 ha 16348 TPSG HA2 18090 0.1332 1.008000
18091 ca 16348 TPSG CA2 18091 -0.0753 12.010000
18092 ca 16348 TPSG CA1 18092 -0.361 12.010000
18093 si 16348 TPSG Si 18093 1.1 28.085000
18094 ca 16348 TPSG CA6 18094 -0.0753 12.010000
18095 ha 16348 TPSG HH6 18095 0.1332 1.008000
18096 ca 16348 TPSG CA5 18096 -0.1548 12.010000
18097 ha 16348 TPSG HA5 18097 0.1282 1.008000
18098 ca 16348 TPSG CA4 18098 -0.1028 12.010000
18099 ha 16348 TPSG HA4 18099 0.1262 1.008000
18100 ca 16348 TPSG CA3 18100 -0.1548 12.010000
18101 ha 16348 TPSG HA3 18101 0.1282 1.008000
18102 OA 16348 TPSG O1 18102 -0.675000 15.99940
18103 HG 16348 TPSG H6 18103 0.400000 2.01600
18104 ha 16349 TPSG HA2 18104 0.1332 1.008000
18105 ca 16349 TPSG CA2 18105 -0.0753 12.010000
18106 ca 16349 TPSG CA1 18106 -0.361 12.010000
18107 si 16349 TPSG Si 18107 1.1 28.085000
18108 ca 16349 TPSG CA6 18108 -0.0753 12.010000
18109 ha 16349 TPSG HH6 18109 0.1332 1.008000
18110 ca 16349 TPSG CA5 18110 -0.1548 12.010000
18111 ha 16349 TPSG HA5 18111 0.1282 1.008000
18112 ca 16349 TPSG CA4 18112 -0.1028 12.010000
18113 ha 16349 TPSG HA4 18113 0.1262 1.008000
18114 ca 16349 TPSG CA3 18114 -0.1548 12.010000
18115 ha 16349 TPSG HA3 18115 0.1282 1.008000
18116 OA 16349 TPSG O1 18116 -0.675000 15.99940
18117 HG 16349 TPSG H6 18117 0.400000 2.01600
18118 ha 16350 TPSG HA2 18118 0.1332 1.008000
18119 ca 16350 TPSG CA2 18119 -0.0753 12.010000
18120 ca 16350 TPSG CA1 18120 -0.361 12.010000
18121 si 16350 TPSG Si 18121 1.1 28.085000
18122 ca 16350 TPSG CA6 18122 -0.0753 12.010000
18123 ha 16350 TPSG HH6 18123 0.1332 1.008000
18124 ca 16350 TPSG CA5 18124 -0.1548 12.010000
18125 ha 16350 TPSG HA5 18125 0.1282 1.008000
18126 ca 16350 TPSG CA4 18126 -0.1028 12.010000
18127 ha 16350 TPSG HA4 18127 0.1262 1.008000
18128 ca 16350 TPSG CA3 18128 -0.1548 12.010000
18129 ha 16350 TPSG HA3 18129 0.1282 1.008000
18130 OA 16350 TPSG O1 18130 -0.675000 15.99940
18131 HG 16350 TPSG H6 18131 0.400000 2.01600
18132 ha 16351 TPSG HA2 18132 0.1332 1.008000
18133 ca 16351 TPSG CA2 18133 -0.0753 12.010000
18134 ca 16351 TPSG CA1 18134 -0.361 12.010000
18135 si 16351 TPSG Si 18135 1.1 28.085000
18136 ca 16351 TPSG CA6 18136 -0.0753 12.010000
18137 ha 16351 TPSG HH6 18137 0.1332 1.008000
18138 ca 16351 TPSG CA5 18138 -0.1548 12.010000
18139 ha 16351 TPSG HA5 18139 0.1282 1.008000
18140 ca 16351 TPSG CA4 18140 -0.1028 12.010000
18141 ha 16351 TPSG HA4 18141 0.1262 1.008000
18142 ca 16351 TPSG CA3 18142 -0.1548 12.010000
18143 ha 16351 TPSG HA3 18143 0.1282 1.008000
18144 OA 16351 TPSG O1 18144 -0.675000 15.99940
18145 HG 16351 TPSG H6 18145 0.400000 2.01600
18146 ha 16352 TPSG HA2 18146 0.1332 1.008000
18147 ca 16352 TPSG CA2 18147 -0.0753 12.010000
18148 ca 16352 TPSG CA1 18148 -0.361 12.010000
18149 si 16352 TPSG Si 18149 1.1 28.085000
18150 ca 16352 TPSG CA6 18150 -0.0753 12.010000
18151 ha 16352 TPSG HH6 18151 0.1332 1.008000
18152 ca 16352 TPSG CA5 18152 -0.1548 12.010000
18153 ha 16352 TPSG HA5 18153 0.1282 1.008000
18154 ca 16352 TPSG CA4 18154 -0.1028 12.010000
18155 ha 16352 TPSG HA4 18155 0.1262 1.008000
18156 ca 16352 TPSG CA3 18156 -0.1548 12.010000
18157 ha 16352 TPSG HA3 18157 0.1282 1.008000
18158 OA 16352 TPSG O1 18158 -0.675000 15.99940
18159 HG 16352 TPSG H6 18159 0.400000 2.01600
18160 ha 16353 TPSG HA2 18160 0.1332 1.008000
18161 ca 16353 TPSG CA2 18161 -0.0753 12.010000
18162 ca 16353 TPSG CA1 18162 -0.361 12.010000
18163 si 16353 TPSG Si 18163 1.1 28.085000
18164 ca 16353 TPSG CA6 18164 -0.0753 12.010000
18165 ha 16353 TPSG HH6 18165 0.1332 1.008000
18166 ca 16353 TPSG CA5 18166 -0.1548 12.010000
18167 ha 16353 TPSG HA5 18167 0.1282 1.008000
18168 ca 16353 TPSG CA4 18168 -0.1028 12.010000
18169 ha 16353 TPSG HA4 18169 0.1262 1.008000
18170 ca 16353 TPSG CA3 18170 -0.1548 12.010000
18171 ha 16353 TPSG HA3 18171 0.1282 1.008000
18172 OA 16353 TPSG O1 18172 -0.675000 15.99940
18173 HG 16353 TPSG H6 18173 0.400000 2.01600
18174 ha 16354 TPSG HA2 18174 0.1332 1.008000
18175 ca 16354 TPSG CA2 18175 -0.0753 12.010000
18176 ca 16354 TPSG CA1 18176 -0.361 12.010000
18177 si 16354 TPSG Si 18177 1.1 28.085000
18178 ca 16354 TPSG CA6 18178 -0.0753 12.010000
18179 ha 16354 TPSG HH6 18179 0.1332 1.008000
18180 ca 16354 TPSG CA5 18180 -0.1548 12.010000
18181 ha 16354 TPSG HA5 18181 0.1282 1.008000
18182 ca 16354 TPSG CA4 18182 -0.1028 12.010000
18183 ha 16354 TPSG HA4 18183 0.1262 1.008000
18184 ca 16354 TPSG CA3 18184 -0.1548 12.010000
18185 ha 16354 TPSG HA3 18185 0.1282 1.008000
18186 OA 16354 TPSG O1 18186 -0.675000 15.99940
18187 HG 16354 TPSG H6 18187 0.400000 2.01600
18188 ha 16355 TPSG HA2 18188 0.1332 1.008000
18189 ca 16355 TPSG CA2 18189 -0.0753 12.010000
18190 ca 16355 TPSG CA1 18190 -0.361 12.010000
18191 si 16355 TPSG Si 18191 1.1 28.085000
18192 ca 16355 TPSG CA6 18192 -0.0753 12.010000
18193 ha 16355 TPSG HH6 18193 0.1332 1.008000
18194 ca 16355 TPSG CA5 18194 -0.1548 12.010000
18195 ha 16355 TPSG HA5 18195 0.1282 1.008000
18196 ca 16355 TPSG CA4 18196 -0.1028 12.010000
18197 ha 16355 TPSG HA4 18197 0.1262 1.008000
18198 ca 16355 TPSG CA3 18198 -0.1548 12.010000
18199 ha 16355 TPSG HA3 18199 0.1282 1.008000
18200 OA 16355 TPSG O1 18200 -0.675000 15.99940
18201 HG 16355 TPSG H6 18201 0.400000 2.01600
18202 ha 16356 TPSG HA2 18202 0.1332 1.008000
18203 ca 16356 TPSG CA2 18203 -0.0753 12.010000
18204 ca 16356 TPSG CA1 18204 -0.361 12.010000
18205 si 16356 TPSG Si 18205 1.1 28.085000
18206 ca 16356 TPSG CA6 18206 -0.0753 12.010000
18207 ha 16356 TPSG HH6 18207 0.1332 1.008000
18208 ca 16356 TPSG CA5 18208 -0.1548 12.010000
18209 ha 16356 TPSG HA5 18209 0.1282 1.008000
18210 ca 16356 TPSG CA4 18210 -0.1028 12.010000
18211 ha 16356 TPSG HA4 18211 0.1262 1.008000
18212 ca 16356 TPSG CA3 18212 -0.1548 12.010000
18213 ha 16356 TPSG HA3 18213 0.1282 1.008000
18214 OA 16356 TPSG O1 18214 -0.675000 15.99940
18215 HG 16356 TPSG H6 18215 0.400000 2.01600
18216 ha 16357 TPSG HA2 18216 0.1332 1.008000
18217 ca 16357 TPSG CA2 18217 -0.0753 12.010000
18218 ca 16357 TPSG CA1 18218 -0.361 12.010000
18219 si 16357 TPSG Si 18219 1.1 28.085000
18220 ca 16357 TPSG CA6 18220 -0.0753 12.010000
18221 ha 16357 TPSG HH6 18221 0.1332 1.008000
18222 ca 16357 TPSG CA5 18222 -0.1548 12.010000
18223 ha 16357 TPSG HA5 18223 0.1282 1.008000
18224 ca 16357 TPSG CA4 18224 -0.1028 12.010000
18225 ha 16357 TPSG HA4 18225 0.1262 1.008000
18226 ca 16357 TPSG CA3 18226 -0.1548 12.010000
18227 ha 16357 TPSG HA3 18227 0.1282 1.008000
18228 OA 16357 TPSG O1 18228 -0.675000 15.99940
18229 HG 16357 TPSG H6 18229 0.400000 2.01600
18230 ha 16358 TPSG HA2 18230 0.1332 1.008000
18231 ca 16358 TPSG CA2 18231 -0.0753 12.010000
18232 ca 16358 TPSG CA1 18232 -0.361 12.010000
18233 si 16358 TPSG Si 18233 1.1 28.085000
18234 ca 16358 TPSG CA6 18234 -0.0753 12.010000
18235 ha 16358 TPSG HH6 18235 0.1332 1.008000
18236 ca 16358 TPSG CA5 18236 -0.1548 12.010000
18237 ha 16358 TPSG HA5 18237 0.1282 1.008000
18238 ca 16358 TPSG CA4 18238 -0.1028 12.010000
18239 ha 16358 TPSG HA4 18239 0.1262 1.008000
18240 ca 16358 TPSG CA3 18240 -0.1548 12.010000
18241 ha 16358 TPSG HA3 18241 0.1282 1.008000
18242 OA 16358 TPSG O1 18242 -0.675000 15.99940
18243 HG 16358 TPSG H6 18243 0.400000 2.01600
18244 ha 16359 TPSG HA2 18244 0.1332 1.008000
18245 ca 16359 TPSG CA2 18245 -0.0753 12.010000
18246 ca 16359 TPSG CA1 18246 -0.361 12.010000
18247 si 16359 TPSG Si 18247 1.1 28.085000
18248 ca 16359 TPSG CA6 18248 -0.0753 12.010000
18249 ha 16359 TPSG HH6 18249 0.1332 1.008000
18250 ca 16359 TPSG CA5 18250 -0.1548 12.010000
18251 ha 16359 TPSG HA5 18251 0.1282 1.008000
18252 ca 16359 TPSG CA4 18252 -0.1028 12.010000
18253 ha 16359 TPSG HA4 18253 0.1262 1.008000
18254 ca 16359 TPSG CA3 18254 -0.1548 12.010000
18255 ha 16359 TPSG HA3 18255 0.1282 1.008000
18256 OA 16359 TPSG O1 18256 -0.675000 15.99940
18257 HG 16359 TPSG H6 18257 0.400000 2.01600
18258 ha 16360 TPSG HA2 18258 0.1332 1.008000
18259 ca 16360 TPSG CA2 18259 -0.0753 12.010000
18260 ca 16360 TPSG CA1 18260 -0.361 12.010000
18261 si 16360 TPSG Si 18261 1.1 28.085000
18262 ca 16360 TPSG CA6 18262 -0.0753 12.010000
18263 ha 16360 TPSG HH6 18263 0.1332 1.008000
18264 ca 16360 TPSG CA5 18264 -0.1548 12.010000
18265 ha 16360 TPSG HA5 18265 0.1282 1.008000
18266 ca 16360 TPSG CA4 18266 -0.1028 12.010000
18267 ha 16360 TPSG HA4 18267 0.1262 1.008000
18268 ca 16360 TPSG CA3 18268 -0.1548 12.010000
18269 ha 16360 TPSG HA3 18269 0.1282 1.008000
18270 OA 16360 TPSG O1 18270 -0.675000 15.99940
18271 HG 16360 TPSG H6 18271 0.400000 2.01600
18272 ha 16361 TPSG HA2 18272 0.1332 1.008000
18273 ca 16361 TPSG CA2 18273 -0.0753 12.010000
18274 ca 16361 TPSG CA1 18274 -0.361 12.010000
18275 si 16361 TPSG Si 18275 1.1 28.085000
18276 ca 16361 TPSG CA6 18276 -0.0753 12.010000
18277 ha 16361 TPSG HH6 18277 0.1332 1.008000
18278 ca 16361 TPSG CA5 18278 -0.1548 12.010000
18279 ha 16361 TPSG HA5 18279 0.1282 1.008000
18280 ca 16361 TPSG CA4 18280 -0.1028 12.010000
18281 ha 16361 TPSG HA4 18281 0.1262 1.008000
18282 ca 16361 TPSG CA3 18282 -0.1548 12.010000
18283 ha 16361 TPSG HA3 18283 0.1282 1.008000
18284 OA 16361 TPSG O1 18284 -0.675000 15.99940
18285 HG 16361 TPSG H6 18285 0.400000 2.01600
18286 ha 16362 TPSG HA2 18286 0.1332 1.008000
18287 ca 16362 TPSG CA2 18287 -0.0753 12.010000
18288 ca 16362 TPSG CA1 18288 -0.361 12.010000
18289 si 16362 TPSG Si 18289 1.1 28.085000
18290 ca 16362 TPSG CA6 18290 -0.0753 12.010000
18291 ha 16362 TPSG HH6 18291 0.1332 1.008000
18292 ca 16362 TPSG CA5 18292 -0.1548 12.010000
18293 ha 16362 TPSG HA5 18293 0.1282 1.008000
18294 ca 16362 TPSG CA4 18294 -0.1028 12.010000
18295 ha 16362 TPSG HA4 18295 0.1262 1.008000
18296 ca 16362 TPSG CA3 18296 -0.1548 12.010000
18297 ha 16362 TPSG HA3 18297 0.1282 1.008000
18298 OA 16362 TPSG O1 18298 -0.675000 15.99940
18299 HG 16362 TPSG H6 18299 0.400000 2.01600
18300 ha 16363 TPSG HA2 18300 0.1332 1.008000
18301 ca 16363 TPSG CA2 18301 -0.0753 12.010000
18302 ca 16363 TPSG CA1 18302 -0.361 12.010000
18303 si 16363 TPSG Si 18303 1.1 28.085000
18304 ca 16363 TPSG CA6 18304 -0.0753 12.010000
18305 ha 16363 TPSG HH6 18305 0.1332 1.008000
18306 ca 16363 TPSG CA5 18306 -0.1548 12.010000
18307 ha 16363 TPSG HA5 18307 0.1282 1.008000
18308 ca 16363 TPSG CA4 18308 -0.1028 12.010000
18309 ha 16363 TPSG HA4 18309 0.1262 1.008000
18310 ca 16363 TPSG CA3 18310 -0.1548 12.010000
18311 ha 16363 TPSG HA3 18311 0.1282 1.008000
18312 OA 16363 TPSG O1 18312 -0.675000 15.99940
18313 HG 16363 TPSG H6 18313 0.400000 2.01600
18314 ha 16364 TPSG HA2 18314 0.1332 1.008000
18315 ca 16364 TPSG CA2 18315 -0.0753 12.010000
18316 ca 16364 TPSG CA1 18316 -0.361 12.010000
18317 si 16364 TPSG Si 18317 1.1 28.085000
18318 ca 16364 TPSG CA6 18318 -0.0753 12.010000
18319 ha 16364 TPSG HH6 18319 0.1332 1.008000
18320 ca 16364 TPSG CA5 18320 -0.1548 12.010000
18321 ha 16364 TPSG HA5 18321 0.1282 1.008000
18322 ca 16364 TPSG CA4 18322 -0.1028 12.010000
18323 ha 16364 TPSG HA4 18323 0.1262 1.008000
18324 ca 16364 TPSG CA3 18324 -0.1548 12.010000
18325 ha 16364 TPSG HA3 18325 0.1282 1.008000
18326 OA 16364 TPSG O1 18326 -0.675000 15.99940
18327 HG 16364 TPSG H6 18327 0.400000 2.01600
18328 ha 16365 TPSG HA2 18328 0.1332 1.008000
18329 ca 16365 TPSG CA2 18329 -0.0753 12.010000
18330 ca 16365 TPSG CA1 18330 -0.361 12.010000
18331 si 16365 TPSG Si 18331 1.1 28.085000
18332 ca 16365 TPSG CA6 18332 -0.0753 12.010000
18333 ha 16365 TPSG HH6 18333 0.1332 1.008000
18334 ca 16365 TPSG CA5 18334 -0.1548 12.010000
18335 ha 16365 TPSG HA5 18335 0.1282 1.008000
18336 ca 16365 TPSG CA4 18336 -0.1028 12.010000
18337 ha 16365 TPSG HA4 18337 0.1262 1.008000
18338 ca 16365 TPSG CA3 18338 -0.1548 12.010000
18339 ha 16365 TPSG HA3 18339 0.1282 1.008000
18340 OA 16365 TPSG O1 18340 -0.675000 15.99940
18341 HG 16365 TPSG H6 18341 0.400000 2.01600
18342 ha 16366 TPS HA2 18342 0.1332 1.008000
18343 ca 16366 TPS CA2 18343 -0.0753 12.010000
18344 ca 16366 TPS CA1 18344 -0.361 12.010000
18345 si 16366 TPS Si 18345 1.1 28.085000
18346 ca 16366 TPS CA6 18346 -0.0753 12.010000
18347 ha 16366 TPS HH6 18347 0.1332 1.008000
18348 ca 16366 TPS CA5 18348 -0.1548 12.010000
18349 ha 16366 TPS HA5 18349 0.1282 1.008000
18350 ca 16366 TPS CA4 18350 -0.1028 12.010000
18351 ha 16366 TPS HA4 18351 0.1262 1.008000
18352 ca 16366 TPS CA3 18352 -0.1548 12.010000
18353 ha 16366 TPS HA3 18353 0.1282 1.008000
18354 ha 16367 TPS HA2 18354 0.1332 1.008000
18355 ca 16367 TPS CA2 18355 -0.0753 12.010000
18356 ca 16367 TPS CA1 18356 -0.361 12.010000
18357 si 16367 TPS Si 18357 1.1 28.085000
18358 ca 16367 TPS CA6 18358 -0.0753 12.010000
18359 ha 16367 TPS HH6 18359 0.1332 1.008000
18360 ca 16367 TPS CA5 18360 -0.1548 12.010000
18361 ha 16367 TPS HA5 18361 0.1282 1.008000
18362 ca 16367 TPS CA4 18362 -0.1028 12.010000
18363 ha 16367 TPS HA4 18363 0.1262 1.008000
18364 ca 16367 TPS CA3 18364 -0.1548 12.010000
18365 ha 16367 TPS HA3 18365 0.1282 1.008000
18366 ha 16368 TPS HA2 18366 0.1332 1.008000
18367 ca 16368 TPS CA2 18367 -0.0753 12.010000
18368 ca 16368 TPS CA1 18368 -0.361 12.010000
18369 si 16368 TPS Si 18369 1.1 28.085000
18370 ca 16368 TPS CA6 18370 -0.0753 12.010000
18371 ha 16368 TPS HH6 18371 0.1332 1.008000
18372 ca 16368 TPS CA5 18372 -0.1548 12.010000
18373 ha 16368 TPS HA5 18373 0.1282 1.008000
18374 ca 16368 TPS CA4 18374 -0.1028 12.010000
18375 ha 16368 TPS HA4 18375 0.1262 1.008000
18376 ca 16368 TPS CA3 18376 -0.1548 12.010000
18377 ha 16368 TPS HA3 18377 0.1282 1.008000
18378 ha 16369 TPS HA2 18378 0.1332 1.008000
18379 ca 16369 TPS CA2 18379 -0.0753 12.010000
18380 ca 16369 TPS CA1 18380 -0.361 12.010000
18381 si 16369 TPS Si 18381 1.1 28.085000
18382 ca 16369 TPS CA6 18382 -0.0753 12.010000
18383 ha 16369 TPS HH6 18383 0.1332 1.008000
18384 ca 16369 TPS CA5 18384 -0.1548 12.010000
18385 ha 16369 TPS HA5 18385 0.1282 1.008000
18386 ca 16369 TPS CA4 18386 -0.1028 12.010000
18387 ha 16369 TPS HA4 18387 0.1262 1.008000
18388 ca 16369 TPS CA3 18388 -0.1548 12.010000
18389 ha 16369 TPS HA3 18389 0.1282 1.008000
18390 ha 16370 TPS HA2 18390 0.1332 1.008000
18391 ca 16370 TPS CA2 18391 -0.0753 12.010000
18392 ca 16370 TPS CA1 18392 -0.361 12.010000
18393 si 16370 TPS Si 18393 1.1 28.085000
18394 ca 16370 TPS CA6 18394 -0.0753 12.010000
18395 ha 16370 TPS HH6 18395 0.1332 1.008000
18396 ca 16370 TPS CA5 18396 -0.1548 12.010000
18397 ha 16370 TPS HA5 18397 0.1282 1.008000
18398 ca 16370 TPS CA4 18398 -0.1028 12.010000
18399 ha 16370 TPS HA4 18399 0.1262 1.008000
18400 ca 16370 TPS CA3 18400 -0.1548 12.010000
18401 ha 16370 TPS HA3 18401 0.1282 1.008000
18402 ha 16371 TPS HA2 18402 0.1332 1.008000
18403 ca 16371 TPS CA2 18403 -0.0753 12.010000
18404 ca 16371 TPS CA1 18404 -0.361 12.010000
18405 si 16371 TPS Si 18405 1.1 28.085000
18406 ca 16371 TPS CA6 18406 -0.0753 12.010000
18407 ha 16371 TPS HH6 18407 0.1332 1.008000
18408 ca 16371 TPS CA5 18408 -0.1548 12.010000
18409 ha 16371 TPS HA5 18409 0.1282 1.008000
18410 ca 16371 TPS CA4 18410 -0.1028 12.010000
18411 ha 16371 TPS HA4 18411 0.1262 1.008000
18412 ca 16371 TPS CA3 18412 -0.1548 12.010000
18413 ha 16371 TPS HA3 18413 0.1282 1.008000
18414 ha 16372 TPS HA2 18414 0.1332 1.008000
18415 ca 16372 TPS CA2 18415 -0.0753 12.010000
18416 ca 16372 TPS CA1 18416 -0.361 12.010000
18417 si 16372 TPS Si 18417 1.1 28.085000
18418 ca 16372 TPS CA6 18418 -0.0753 12.010000
18419 ha 16372 TPS HH6 18419 0.1332 1.008000
18420 ca 16372 TPS CA5 18420 -0.1548 12.010000
18421 ha 16372 TPS HA5 18421 0.1282 1.008000
18422 ca 16372 TPS CA4 18422 -0.1028 12.010000
18423 ha 16372 TPS HA4 18423 0.1262 1.008000
18424 ca 16372 TPS CA3 18424 -0.1548 12.010000
18425 ha 16372 TPS HA3 18425 0.1282 1.008000
18426 ha 16373 TPS HA2 18426 0.1332 1.008000
18427 ca 16373 TPS CA2 18427 -0.0753 12.010000
18428 ca 16373 TPS CA1 18428 -0.361 12.010000
18429 si 16373 TPS Si 18429 1.1 28.085000
18430 ca 16373 TPS CA6 18430 -0.0753 12.010000
18431 ha 16373 TPS HH6 18431 0.1332 1.008000
18432 ca 16373 TPS CA5 18432 -0.1548 12.010000
18433 ha 16373 TPS HA5 18433 0.1282 1.008000
18434 ca 16373 TPS CA4 18434 -0.1028 12.010000
18435 ha 16373 TPS HA4 18435 0.1262 1.008000
18436 ca 16373 TPS CA3 18436 -0.1548 12.010000
18437 ha 16373 TPS HA3 18437 0.1282 1.008000
18438 ha 16374 TPS HA2 18438 0.1332 1.008000
18439 ca 16374 TPS CA2 18439 -0.0753 12.010000
18440 ca 16374 TPS CA1 18440 -0.361 12.010000
18441 si 16374 TPS Si 18441 1.1 28.085000
18442 ca 16374 TPS CA6 18442 -0.0753 12.010000
18443 ha 16374 TPS HH6 18443 0.1332 1.008000
18444 ca 16374 TPS CA5 18444 -0.1548 12.010000
18445 ha 16374 TPS HA5 18445 0.1282 1.008000
18446 ca 16374 TPS CA4 18446 -0.1028 12.010000
18447 ha 16374 TPS HA4 18447 0.1262 1.008000
18448 ca 16374 TPS CA3 18448 -0.1548 12.010000
18449 ha 16374 TPS HA3 18449 0.1282 1.008000
18450 ha 16375 TPS HA2 18450 0.1332 1.008000
18451 ca 16375 TPS CA2 18451 -0.0753 12.010000
18452 ca 16375 TPS CA1 18452 -0.361 12.010000
18453 si 16375 TPS Si 18453 1.1 28.085000
18454 ca 16375 TPS CA6 18454 -0.0753 12.010000
18455 ha 16375 TPS HH6 18455 0.1332 1.008000
18456 ca 16375 TPS CA5 18456 -0.1548 12.010000
18457 ha 16375 TPS HA5 18457 0.1282 1.008000
18458 ca 16375 TPS CA4 18458 -0.1028 12.010000
18459 ha 16375 TPS HA4 18459 0.1262 1.008000
18460 ca 16375 TPS CA3 18460 -0.1548 12.010000
18461 ha 16375 TPS HA3 18461 0.1282 1.008000
18462 ha 16376 TPS HA2 18462 0.1332 1.008000
18463 ca 16376 TPS CA2 18463 -0.0753 12.010000
18464 ca 16376 TPS CA1 18464 -0.361 12.010000
18465 si 16376 TPS Si 18465 1.1 28.085000
18466 ca 16376 TPS CA6 18466 -0.0753 12.010000
18467 ha 16376 TPS HH6 18467 0.1332 1.008000
18468 ca 16376 TPS CA5 18468 -0.1548 12.010000
18469 ha 16376 TPS HA5 18469 0.1282 1.008000
18470 ca 16376 TPS CA4 18470 -0.1028 12.010000
18471 ha 16376 TPS HA4 18471 0.1262 1.008000
18472 ca 16376 TPS CA3 18472 -0.1548 12.010000
18473 ha 16376 TPS HA3 18473 0.1282 1.008000
18474 ha 16377 TPS HA2 18474 0.1332 1.008000
18475 ca 16377 TPS CA2 18475 -0.0753 12.010000
18476 ca 16377 TPS CA1 18476 -0.361 12.010000
18477 si 16377 TPS Si 18477 1.1 28.085000
18478 ca 16377 TPS CA6 18478 -0.0753 12.010000
18479 ha 16377 TPS HH6 18479 0.1332 1.008000
18480 ca 16377 TPS CA5 18480 -0.1548 12.010000
18481 ha 16377 TPS HA5 18481 0.1282 1.008000
18482 ca 16377 TPS CA4 18482 -0.1028 12.010000
18483 ha 16377 TPS HA4 18483 0.1262 1.008000
18484 ca 16377 TPS CA3 18484 -0.1548 12.010000
18485 ha 16377 TPS HA3 18485 0.1282 1.008000
18486 ha 16378 TPS HA2 18486 0.1332 1.008000
18487 ca 16378 TPS CA2 18487 -0.0753 12.010000
18488 ca 16378 TPS CA1 18488 -0.361 12.010000
18489 si 16378 TPS Si 18489 1.1 28.085000
18490 ca 16378 TPS CA6 18490 -0.0753 12.010000
18491 ha 16378 TPS HH6 18491 0.1332 1.008000
18492 ca 16378 TPS CA5 18492 -0.1548 12.010000
18493 ha 16378 TPS HA5 18493 0.1282 1.008000
18494 ca 16378 TPS CA4 18494 -0.1028 12.010000
18495 ha 16378 TPS HA4 18495 0.1262 1.008000
18496 ca 16378 TPS CA3 18496 -0.1548 12.010000
18497 ha 16378 TPS HA3 18497 0.1282 1.008000
18498 ha 16379 TPS HA2 18498 0.1332 1.008000
18499 ca 16379 TPS CA2 18499 -0.0753 12.010000
18500 ca 16379 TPS CA1 18500 -0.361 12.010000
18501 si 16379 TPS Si 18501 1.1 28.085000
18502 ca 16379 TPS CA6 18502 -0.0753 12.010000
18503 ha 16379 TPS HH6 18503 0.1332 1.008000
18504 ca 16379 TPS CA5 18504 -0.1548 12.010000
18505 ha 16379 TPS HA5 18505 0.1282 1.008000
18506 ca 16379 TPS CA4 18506 -0.1028 12.010000
18507 ha 16379 TPS HA4 18507 0.1262 1.008000
18508 ca 16379 TPS CA3 18508 -0.1548 12.010000
18509 ha 16379 TPS HA3 18509 0.1282 1.008000
18510 ha 16380 TPS HA2 18510 0.1332 1.008000
18511 ca 16380 TPS CA2 18511 -0.0753 12.010000
18512 ca 16380 TPS CA1 18512 -0.361 12.010000
18513 si 16380 TPS Si 18513 1.1 28.085000
18514 ca 16380 TPS CA6 18514 -0.0753 12.010000
18515 ha 16380 TPS HH6 18515 0.1332 1.008000
18516 ca 16380 TPS CA5 18516 -0.1548 12.010000
18517 ha 16380 TPS HA5 18517 0.1282 1.008000
18518 ca 16380 TPS CA4 18518 -0.1028 12.010000
18519 ha 16380 TPS HA4 18519 0.1262 1.008000
18520 ca 16380 TPS CA3 18520 -0.1548 12.010000
18521 ha 16380 TPS HA3 18521 0.1282 1.008000
18522 ha 16381 TPS HA2 18522 0.1332 1.008000
18523 ca 16381 TPS CA2 18523 -0.0753 12.010000
18524 ca 16381 TPS CA1 18524 -0.361 12.010000
18525 si 16381 TPS Si 18525 1.1 28.085000
18526 ca 16381 TPS CA6 18526 -0.0753 12.010000
18527 ha 16381 TPS HH6 18527 0.1332 1.008000
18528 ca 16381 TPS CA5 18528 -0.1548 12.010000
18529 ha 16381 TPS HA5 18529 0.1282 1.008000
18530 ca 16381 TPS CA4 18530 -0.1028 12.010000
18531 ha 16381 TPS HA4 18531 0.1262 1.008000
18532 ca 16381 TPS CA3 18532 -0.1548 12.010000
18533 ha 16381 TPS HA3 18533 0.1282 1.008000
18534 ha 16382 TPS HA2 18534 0.1332 1.008000
18535 ca 16382 TPS CA2 18535 -0.0753 12.010000
18536 ca 16382 TPS CA1 18536 -0.361 12.010000
18537 si 16382 TPS Si 18537 1.1 28.085000
18538 ca 16382 TPS CA6 18538 -0.0753 12.010000
18539 ha 16382 TPS HH6 18539 0.1332 1.008000
18540 ca 16382 TPS CA5 18540 -0.1548 12.010000
18541 ha 16382 TPS HA5 18541 0.1282 1.008000
18542 ca 16382 TPS CA4 18542 -0.1028 12.010000
18543 ha 16382 TPS HA4 18543 0.1262 1.008000
18544 ca 16382 TPS CA3 18544 -0.1548 12.010000
18545 ha 16382 TPS HA3 18545 0.1282 1.008000
18546 ha 16383 TPS HA2 18546 0.1332 1.008000
18547 ca 16383 TPS CA2 18547 -0.0753 12.010000
18548 ca 16383 TPS CA1 18548 -0.361 12.010000
18549 si 16383 TPS Si 18549 1.1 28.085000
18550 ca 16383 TPS CA6 18550 -0.0753 12.010000
18551 ha 16383 TPS HH6 18551 0.1332 1.008000
18552 ca 16383 TPS CA5 18552 -0.1548 12.010000
18553 ha 16383 TPS HA5 18553 0.1282 1.008000
18554 ca 16383 TPS CA4 18554 -0.1028 12.010000
18555 ha 16383 TPS HA4 18555 0.1262 1.008000
18556 ca 16383 TPS CA3 18556 -0.1548 12.010000
18557 ha 16383 TPS HA3 18557 0.1282 1.008000
18558 ha 16384 TPS HA2 18558 0.1332 1.008000
18559 ca 16384 TPS CA2 18559 -0.0753 12.010000
18560 ca 16384 TPS CA1 18560 -0.361 12.010000
18561 si 16384 TPS Si 18561 1.1 28.085000
18562 ca 16384 TPS CA6 18562 -0.0753 12.010000
18563 ha 16384 TPS HH6 18563 0.1332 1.008000
18564 ca 16384 TPS CA5 18564 -0.1548 12.010000
18565 ha 16384 TPS HA5 18565 0.1282 1.008000
18566 ca 16384 TPS CA4 18566 -0.1028 12.010000
18567 ha 16384 TPS HA4 18567 0.1262 1.008000
18568 ca 16384 TPS CA3 18568 -0.1548 12.010000
18569 ha 16384 TPS HA3 18569 0.1282 1.008000
18570 ha 16385 TPS HA2 18570 0.1332 1.008000
18571 ca 16385 TPS CA2 18571 -0.0753 12.010000
18572 ca 16385 TPS CA1 18572 -0.361 12.010000
18573 si 16385 TPS Si 18573 1.1 28.085000
18574 ca 16385 TPS CA6 18574 -0.0753 12.010000
18575 ha 16385 TPS HH6 18575 0.1332 1.008000
18576 ca 16385 TPS CA5 18576 -0.1548 12.010000
18577 ha 16385 TPS HA5 18577 0.1282 1.008000
18578 ca 16385 TPS CA4 18578 -0.1028 12.010000
18579 ha 16385 TPS HA4 18579 0.1262 1.008000
18580 ca 16385 TPS CA3 18580 -0.1548 12.010000
18581 ha 16385 TPS HA3 18581 0.1282 1.008000
18582 ha 16386 TPS HA2 18582 0.1332 1.008000
18583 ca 16386 TPS CA2 18583 -0.0753 12.010000
18584 ca 16386 TPS CA1 18584 -0.361 12.010000
18585 si 16386 TPS Si 18585 1.1 28.085000
18586 ca 16386 TPS CA6 18586 -0.0753 12.010000
18587 ha 16386 TPS HH6 18587 0.1332 1.008000
18588 ca 16386 TPS CA5 18588 -0.1548 12.010000
18589 ha 16386 TPS HA5 18589 0.1282 1.008000
18590 ca 16386 TPS CA4 18590 -0.1028 12.010000
18591 ha 16386 TPS HA4 18591 0.1262 1.008000
18592 ca 16386 TPS CA3 18592 -0.1548 12.010000
18593 ha 16386 TPS HA3 18593 0.1282 1.008000
18594 ha 16387 TPS HA2 18594 0.1332 1.008000
18595 ca 16387 TPS CA2 18595 -0.0753 12.010000
18596 ca 16387 TPS CA1 18596 -0.361 12.010000
18597 si 16387 TPS Si 18597 1.1 28.085000
18598 ca 16387 TPS CA6 18598 -0.0753 12.010000
18599 ha 16387 TPS HH6 18599 0.1332 1.008000
18600 ca 16387 TPS CA5 18600 -0.1548 12.010000
18601 ha 16387 TPS HA5 18601 0.1282 1.008000
18602 ca 16387 TPS CA4 18602 -0.1028 12.010000
18603 ha 16387 TPS HA4 18603 0.1262 1.008000
18604 ca 16387 TPS CA3 18604 -0.1548 12.010000
18605 ha 16387 TPS HA3 18605 0.1282 1.008000
18606 ha 16388 TPS HA2 18606 0.1332 1.008000
18607 ca 16388 TPS CA2 18607 -0.0753 12.010000
18608 ca 16388 TPS CA1 18608 -0.361 12.010000
18609 si 16388 TPS Si 18609 1.1 28.085000
18610 ca 16388 TPS CA6 18610 -0.0753 12.010000
18611 ha 16388 TPS HH6 18611 0.1332 1.008000
18612 ca 16388 TPS CA5 18612 -0.1548 12.010000
18613 ha 16388 TPS HA5 18613 0.1282 1.008000
18614 ca 16388 TPS CA4 18614 -0.1028 12.010000
18615 ha 16388 TPS HA4 18615 0.1262 1.008000
18616 ca 16388 TPS CA3 18616 -0.1548 12.010000
18617 ha 16388 TPS HA3 18617 0.1282 1.008000
18618 ha 16389 TPS HA2 18618 0.1332 1.008000
18619 ca 16389 TPS CA2 18619 -0.0753 12.010000
18620 ca 16389 TPS CA1 18620 -0.361 12.010000
18621 si 16389 TPS Si 18621 1.1 28.085000
18622 ca 16389 TPS CA6 18622 -0.0753 12.010000
18623 ha 16389 TPS HH6 18623 0.1332 1.008000
18624 ca 16389 TPS CA5 18624 -0.1548 12.010000
18625 ha 16389 TPS HA5 18625 0.1282 1.008000
18626 ca 16389 TPS CA4 18626 -0.1028 12.010000
18627 ha 16389 TPS HA4 18627 0.1262 1.008000
18628 ca 16389 TPS CA3 18628 -0.1548 12.010000
18629 ha 16389 TPS HA3 18629 0.1282 1.008000
18630 ha 16390 TPS HA2 18630 0.1332 1.008000
18631 ca 16390 TPS CA2 18631 -0.0753 12.010000
18632 ca 16390 TPS CA1 18632 -0.361 12.010000
18633 si 16390 TPS Si 18633 1.1 28.085000
18634 ca 16390 TPS CA6 18634 -0.0753 12.010000
18635 ha 16390 TPS HH6 18635 0.1332 1.008000
18636 ca 16390 TPS CA5 18636 -0.1548 12.010000
18637 ha 16390 TPS HA5 18637 0.1282 1.008000
18638 ca 16390 TPS CA4 18638 -0.1028 12.010000
18639 ha 16390 TPS HA4 18639 0.1262 1.008000
18640 ca 16390 TPS CA3 18640 -0.1548 12.010000
18641 ha 16390 TPS HA3 18641 0.1282 1.008000
18642 ha 16391 TPS HA2 18642 0.1332 1.008000
18643 ca 16391 TPS CA2 18643 -0.0753 12.010000
18644 ca 16391 TPS CA1 18644 -0.361 12.010000
18645 si 16391 TPS Si 18645 1.1 28.085000
18646 ca 16391 TPS CA6 18646 -0.0753 12.010000
18647 ha 16391 TPS HH6 18647 0.1332 1.008000
18648 ca 16391 TPS CA5 18648 -0.1548 12.010000
18649 ha 16391 TPS HA5 18649 0.1282 1.008000
18650 ca 16391 TPS CA4 18650 -0.1028 12.010000
18651 ha 16391 TPS HA4 18651 0.1262 1.008000
18652 ca 16391 TPS CA3 18652 -0.1548 12.010000
18653 ha 16391 TPS HA3 18653 0.1282 1.008000
18654 ha 16392 TPS HA2 18654 0.1332 1.008000
18655 ca 16392 TPS CA2 18655 -0.0753 12.010000
18656 ca 16392 TPS CA1 18656 -0.361 12.010000
18657 si 16392 TPS Si 18657 1.1 28.085000
18658 ca 16392 TPS CA6 18658 -0.0753 12.010000
18659 ha 16392 TPS HH6 18659 0.1332 1.008000
18660 ca 16392 TPS CA5 18660 -0.1548 12.010000
18661 ha 16392 TPS HA5 18661 0.1282 1.008000
18662 ca 16392 TPS CA4 18662 -0.1028 12.010000
18663 ha 16392 TPS HA4 18663 0.1262 1.008000
18664 ca 16392 TPS CA3 18664 -0.1548 12.010000
18665 ha 16392 TPS HA3 18665 0.1282 1.008000
18666 ha 16393 TPS HA2 18666 0.1332 1.008000
18667 ca 16393 TPS CA2 18667 -0.0753 12.010000
18668 ca 16393 TPS CA1 18668 -0.361 12.010000
18669 si 16393 TPS Si 18669 1.1 28.085000
18670 ca 16393 TPS CA6 18670 -0.0753 12.010000
18671 ha 16393 TPS HH6 18671 0.1332 1.008000
18672 ca 16393 TPS CA5 18672 -0.1548 12.010000
18673 ha 16393 TPS HA5 18673 0.1282 1.008000
18674 ca 16393 TPS CA4 18674 -0.1028 12.010000
18675 ha 16393 TPS HA4 18675 0.1262 1.008000
18676 ca 16393 TPS CA3 18676 -0.1548 12.010000
18677 ha 16393 TPS HA3 18677 0.1282 1.008000
18678 ha 16394 TPS HA2 18678 0.1332 1.008000
18679 ca 16394 TPS CA2 18679 -0.0753 12.010000
18680 ca 16394 TPS CA1 18680 -0.361 12.010000
18681 si 16394 TPS Si 18681 1.1 28.085000
18682 ca 16394 TPS CA6 18682 -0.0753 12.010000
18683 ha 16394 TPS HH6 18683 0.1332 1.008000
18684 ca 16394 TPS CA5 18684 -0.1548 12.010000
18685 ha 16394 TPS HA5 18685 0.1282 1.008000
18686 ca 16394 TPS CA4 18686 -0.1028 12.010000
18687 ha 16394 TPS HA4 18687 0.1262 1.008000
18688 ca 16394 TPS CA3 18688 -0.1548 12.010000
18689 ha 16394 TPS HA3 18689 0.1282 1.008000
18690 ha 16395 TPS HA2 18690 0.1332 1.008000
18691 ca 16395 TPS CA2 18691 -0.0753 12.010000
18692 ca 16395 TPS CA1 18692 -0.361 12.010000
18693 si 16395 TPS Si 18693 1.1 28.085000
18694 ca 16395 TPS CA6 18694 -0.0753 12.010000
18695 ha 16395 TPS HH6 18695 0.1332 1.008000
18696 ca 16395 TPS CA5 18696 -0.1548 12.010000
18697 ha 16395 TPS HA5 18697 0.1282 1.008000
18698 ca 16395 TPS CA4 18698 -0.1028 12.010000
18699 ha 16395 TPS HA4 18699 0.1262 1.008000
18700 ca 16395 TPS CA3 18700 -0.1548 12.010000
18701 ha 16395 TPS HA3 18701 0.1282 1.008000
18702 ha 16396 TPS HA2 18702 0.1332 1.008000
18703 ca 16396 TPS CA2 18703 -0.0753 12.010000
18704 ca 16396 TPS CA1 18704 -0.361 12.010000
18705 si 16396 TPS Si 18705 1.1 28.085000
18706 ca 16396 TPS CA6 18706 -0.0753 12.010000
18707 ha 16396 TPS HH6 18707 0.1332 1.008000
18708 ca 16396 TPS CA5 18708 -0.1548 12.010000
18709 ha 16396 TPS HA5 18709 0.1282 1.008000
18710 ca 16396 TPS CA4 18710 -0.1028 12.010000
18711 ha 16396 TPS HA4 18711 0.1262 1.008000
18712 ca 16396 TPS CA3 18712 -0.1548 12.010000
18713 ha 16396 TPS HA3 18713 0.1282 1.008000
18714 ha 16397 TPS HA2 18714 0.1332 1.008000
18715 ca 16397 TPS CA2 18715 -0.0753 12.010000
18716 ca 16397 TPS CA1 18716 -0.361 12.010000
18717 si 16397 TPS Si 18717 1.1 28.085000
18718 ca 16397 TPS CA6 18718 -0.0753 12.010000
18719 ha 16397 TPS HH6 18719 0.1332 1.008000
18720 ca 16397 TPS CA5 18720 -0.1548 12.010000
18721 ha 16397 TPS HA5 18721 0.1282 1.008000
18722 ca 16397 TPS CA4 18722 -0.1028 12.010000
18723 ha 16397 TPS HA4 18723 0.1262 1.008000
18724 ca 16397 TPS CA3 18724 -0.1548 12.010000
18725 ha 16397 TPS HA3 18725 0.1282 1.008000
18726 ha 16398 TPS HA2 18726 0.1332 1.008000
18727 ca 16398 TPS CA2 18727 -0.0753 12.010000
18728 ca 16398 TPS CA1 18728 -0.361 12.010000
18729 si 16398 TPS Si 18729 1.1 28.085000
18730 ca 16398 TPS CA6 18730 -0.0753 12.010000
18731 ha 16398 TPS HH6 18731 0.1332 1.008000
18732 ca 16398 TPS CA5 18732 -0.1548 12.010000
18733 ha 16398 TPS HA5 18733 0.1282 1.008000
18734 ca 16398 TPS CA4 18734 -0.1028 12.010000
18735 ha 16398 TPS HA4 18735 0.1262 1.008000
18736 ca 16398 TPS CA3 18736 -0.1548 12.010000
18737 ha 16398 TPS HA3 18737 0.1282 1.008000
18738 ha 16399 TPS HA2 18738 0.1332 1.008000
18739 ca 16399 TPS CA2 18739 -0.0753 12.010000
18740 ca 16399 TPS CA1 18740 -0.361 12.010000
18741 si 16399 TPS Si 18741 1.1 28.085000
18742 ca 16399 TPS CA6 18742 -0.0753 12.010000
18743 ha 16399 TPS HH6 18743 0.1332 1.008000
18744 ca 16399 TPS CA5 18744 -0.1548 12.010000
18745 ha 16399 TPS HA5 18745 0.1282 1.008000
18746 ca 16399 TPS CA4 18746 -0.1028 12.010000
18747 ha 16399 TPS HA4 18747 0.1262 1.008000
18748 ca 16399 TPS CA3 18748 -0.1548 12.010000
18749 ha 16399 TPS HA3 18749 0.1282 1.008000
18750 ha 16400 TPS HA2 18750 0.1332 1.008000
18751 ca 16400 TPS CA2 18751 -0.0753 12.010000
18752 ca 16400 TPS CA1 18752 -0.361 12.010000
18753 si 16400 TPS Si 18753 1.1 28.085000
18754 ca 16400 TPS CA6 18754 -0.0753 12.010000
18755 ha 16400 TPS HH6 18755 0.1332 1.008000
18756 ca 16400 TPS CA5 18756 -0.1548 12.010000
18757 ha 16400 TPS HA5 18757 0.1282 1.008000
18758 ca 16400 TPS CA4 18758 -0.1028 12.010000
18759 ha 16400 TPS HA4 18759 0.1262 1.008000
18760 ca 16400 TPS CA3 18760 -0.1548 12.010000
18761 ha 16400 TPS HA3 18761 0.1282 1.008000
18762 ha 16401 TPS HA2 18762 0.1332 1.008000
18763 ca 16401 TPS CA2 18763 -0.0753 12.010000
18764 ca 16401 TPS CA1 18764 -0.361 12.010000
18765 si 16401 TPS Si 18765 1.1 28.085000
18766 ca 16401 TPS CA6 18766 -0.0753 12.010000
18767 ha 16401 TPS HH6 18767 0.1332 1.008000
18768 ca 16401 TPS CA5 18768 -0.1548 12.010000
18769 ha 16401 TPS HA5 18769 0.1282 1.008000
18770 ca 16401 TPS CA4 18770 -0.1028 12.010000
18771 ha 16401 TPS HA4 18771 0.1262 1.008000
18772 ca 16401 TPS CA3 18772 -0.1548 12.010000
18773 ha 16401 TPS HA3 18773 0.1282 1.008000
18774 ha 16402 TPS HA2 18774 0.1332 1.008000
18775 ca 16402 TPS CA2 18775 -0.0753 12.010000
18776 ca 16402 TPS CA1 18776 -0.361 12.010000
18777 si 16402 TPS Si 18777 1.1 28.085000
18778 ca 16402 TPS CA6 18778 -0.0753 12.010000
18779 ha 16402 TPS HH6 18779 0.1332 1.008000
18780 ca 16402 TPS CA5 18780 -0.1548 12.010000
18781 ha 16402 TPS HA5 18781 0.1282 1.008000
18782 ca 16402 TPS CA4 18782 -0.1028 12.010000
18783 ha 16402 TPS HA4 18783 0.1262 1.008000
18784 ca 16402 TPS CA3 18784 -0.1548 12.010000
18785 ha 16402 TPS HA3 18785 0.1282 1.008000
18786 ha 16403 TPS HA2 18786 0.1332 1.008000
18787 ca 16403 TPS CA2 18787 -0.0753 12.010000
18788 ca 16403 TPS CA1 18788 -0.361 12.010000
18789 si 16403 TPS Si 18789 1.1 28.085000
18790 ca 16403 TPS CA6 18790 -0.0753 12.010000
18791 ha 16403 TPS HH6 18791 0.1332 1.008000
18792 ca 16403 TPS CA5 18792 -0.1548 12.010000
18793 ha 16403 TPS HA5 18793 0.1282 1.008000
18794 ca 16403 TPS CA4 18794 -0.1028 12.010000
18795 ha 16403 TPS HA4 18795 0.1262 1.008000
18796 ca 16403 TPS CA3 18796 -0.1548 12.010000
18797 ha 16403 TPS HA3 18797 0.1282 1.008000
18798 ha 16404 TPS HA2 18798 0.1332 1.008000
18799 ca 16404 TPS CA2 18799 -0.0753 12.010000
18800 ca 16404 TPS CA1 18800 -0.361 12.010000
18801 si 16404 TPS Si 18801 1.1 28.085000
18802 ca 16404 TPS CA6 18802 -0.0753 12.010000
18803 ha 16404 TPS HH6 18803 0.1332 1.008000
18804 ca 16404 TPS CA5 18804 -0.1548 12.010000
18805 ha 16404 TPS HA5 18805 0.1282 1.008000
18806 ca 16404 TPS CA4 18806 -0.1028 12.010000
18807 ha 16404 TPS HA4 18807 0.1262 1.008000
18808 ca 16404 TPS CA3 18808 -0.1548 12.010000
18809 ha 16404 TPS HA3 18809 0.1282 1.008000
18810 ha 16405 TPS HA2 18810 0.1332 1.008000
18811 ca 16405 TPS CA2 18811 -0.0753 12.010000
18812 ca 16405 TPS CA1 18812 -0.361 12.010000
18813 si 16405 TPS Si 18813 1.1 28.085000
18814 ca 16405 TPS CA6 18814 -0.0753 12.010000
18815 ha 16405 TPS HH6 18815 0.1332 1.008000
18816 ca 16405 TPS CA5 18816 -0.1548 12.010000
18817 ha 16405 TPS HA5 18817 0.1282 1.008000
18818 ca 16405 TPS CA4 18818 -0.1028 12.010000
18819 ha 16405 TPS HA4 18819 0.1262 1.008000
18820 ca 16405 TPS CA3 18820 -0.1548 12.010000
18821 ha 16405 TPS HA3 18821 0.1282 1.008000
18822 ha 16406 TPS HA2 18822 0.1332 1.008000
18823 ca 16406 TPS CA2 18823 -0.0753 12.010000
18824 ca 16406 TPS CA1 18824 -0.361 12.010000
18825 si 16406 TPS Si 18825 1.1 28.085000
18826 ca 16406 TPS CA6 18826 -0.0753 12.010000
18827 ha 16406 TPS HH6 18827 0.1332 1.008000
18828 ca 16406 TPS CA5 18828 -0.1548 12.010000
18829 ha 16406 TPS HA5 18829 0.1282 1.008000
18830 ca 16406 TPS CA4 18830 -0.1028 12.010000
18831 ha 16406 TPS HA4 18831 0.1262 1.008000
18832 ca 16406 TPS CA3 18832 -0.1548 12.010000
18833 ha 16406 TPS HA3 18833 0.1282 1.008000
18834 ha 16407 TPS HA2 18834 0.1332 1.008000
18835 ca 16407 TPS CA2 18835 -0.0753 12.010000
18836 ca 16407 TPS CA1 18836 -0.361 12.010000
18837 si 16407 TPS Si 18837 1.1 28.085000
18838 ca 16407 TPS CA6 18838 -0.0753 12.010000
18839 ha 16407 TPS HH6 18839 0.1332 1.008000
18840 ca 16407 TPS CA5 18840 -0.1548 12.010000
18841 ha 16407 TPS HA5 18841 0.1282 1.008000
18842 ca 16407 TPS CA4 18842 -0.1028 12.010000
18843 ha 16407 TPS HA4 18843 0.1262 1.008000
18844 ca 16407 TPS CA3 18844 -0.1548 12.010000
18845 ha 16407 TPS HA3 18845 0.1282 1.008000
18846 ha 16408 TPS HA2 18846 0.1332 1.008000
18847 ca 16408 TPS CA2 18847 -0.0753 12.010000
18848 ca 16408 TPS CA1 18848 -0.361 12.010000
18849 si 16408 TPS Si 18849 1.1 28.085000
18850 ca 16408 TPS CA6 18850 -0.0753 12.010000
18851 ha 16408 TPS HH6 18851 0.1332 1.008000
18852 ca 16408 TPS CA5 18852 -0.1548 12.010000
18853 ha 16408 TPS HA5 18853 0.1282 1.008000
18854 ca 16408 TPS CA4 18854 -0.1028 12.010000
18855 ha 16408 TPS HA4 18855 0.1262 1.008000
18856 ca 16408 TPS CA3 18856 -0.1548 12.010000
18857 ha 16408 TPS HA3 18857 0.1282 1.008000
18858 ha 16409 TPS HA2 18858 0.1332 1.008000
18859 ca 16409 TPS CA2 18859 -0.0753 12.010000
18860 ca 16409 TPS CA1 18860 -0.361 12.010000
18861 si 16409 TPS Si 18861 1.1 28.085000
18862 ca 16409 TPS CA6 18862 -0.0753 12.010000
18863 ha 16409 TPS HH6 18863 0.1332 1.008000
18864 ca 16409 TPS CA5 18864 -0.1548 12.010000
18865 ha 16409 TPS HA5 18865 0.1282 1.008000
18866 ca 16409 TPS CA4 18866 -0.1028 12.010000
18867 ha 16409 TPS HA4 18867 0.1262 1.008000
18868 ca 16409 TPS CA3 18868 -0.1548 12.010000
18869 ha 16409 TPS HA3 18869 0.1282 1.008000
18870 ha 16410 TPS HA2 18870 0.1332 1.008000
18871 ca 16410 TPS CA2 18871 -0.0753 12.010000
18872 ca 16410 TPS CA1 18872 -0.361 12.010000
18873 si 16410 TPS Si 18873 1.1 28.085000
18874 ca 16410 TPS CA6 18874 -0.0753 12.010000
18875 ha 16410 TPS HH6 18875 0.1332 1.008000
18876 ca 16410 TPS CA5 18876 -0.1548 12.010000
18877 ha 16410 TPS HA5 18877 0.1282 1.008000
18878 ca 16410 TPS CA4 18878 -0.1028 12.010000
18879 ha 16410 TPS HA4 18879 0.1262 1.008000
18880 ca 16410 TPS CA3 18880 -0.1548 12.010000
18881 ha 16410 TPS HA3 18881 0.1282 1.008000
18882 ha 16411 TPS HA2 18882 0.1332 1.008000
18883 ca 16411 TPS CA2 18883 -0.0753 12.010000
18884 ca 16411 TPS CA1 18884 -0.361 12.010000
18885 si 16411 TPS Si 18885 1.1 28.085000
18886 ca 16411 TPS CA6 18886 -0.0753 12.010000
18887 ha 16411 TPS HH6 18887 0.1332 1.008000
18888 ca 16411 TPS CA5 18888 -0.1548 12.010000
18889 ha 16411 TPS HA5 18889 0.1282 1.008000
18890 ca 16411 TPS CA4 18890 -0.1028 12.010000
18891 ha 16411 TPS HA4 18891 0.1262 1.008000
18892 ca 16411 TPS CA3 18892 -0.1548 12.010000
18893 ha 16411 TPS HA3 18893 0.1282 1.008000
18894 ha 16412 TPS HA2 18894 0.1332 1.008000
18895 ca 16412 TPS CA2 18895 -0.0753 12.010000
18896 ca 16412 TPS CA1 18896 -0.361 12.010000
18897 si 16412 TPS Si 18897 1.1 28.085000
18898 ca 16412 TPS CA6 18898 -0.0753 12.010000
18899 ha 16412 TPS HH6 18899 0.1332 1.008000
18900 ca 16412 TPS CA5 18900 -0.1548 12.010000
18901 ha 16412 TPS HA5 18901 0.1282 1.008000
18902 ca 16412 TPS CA4 18902 -0.1028 12.010000
18903 ha 16412 TPS HA4 18903 0.1262 1.008000
18904 ca 16412 TPS CA3 18904 -0.1548 12.010000
18905 ha 16412 TPS HA3 18905 0.1282 1.008000
18906 ha 16413 TPS HA2 18906 0.1332 1.008000
18907 ca 16413 TPS CA2 18907 -0.0753 12.010000
18908 ca 16413 TPS CA1 18908 -0.361 12.010000
18909 si 16413 TPS Si 18909 1.1 28.085000
18910 ca 16413 TPS CA6 18910 -0.0753 12.010000
18911 ha 16413 TPS HH6 18911 0.1332 1.008000
18912 ca 16413 TPS CA5 18912 -0.1548 12.010000
18913 ha 16413 TPS HA5 18913 0.1282 1.008000
18914 ca 16413 TPS CA4 18914 -0.1028 12.010000
18915 ha 16413 TPS HA4 18915 0.1262 1.008000
18916 ca 16413 TPS CA3 18916 -0.1548 12.010000
18917 ha 16413 TPS HA3 18917 0.1282 1.008000
18918 ha 16414 TPS HA2 18918 0.1332 1.008000
18919 ca 16414 TPS CA2 18919 -0.0753 12.010000
18920 ca 16414 TPS CA1 18920 -0.361 12.010000
18921 si 16414 TPS Si 18921 1.1 28.085000
18922 ca 16414 TPS CA6 18922 -0.0753 12.010000
18923 ha 16414 TPS HH6 18923 0.1332 1.008000
18924 ca 16414 TPS CA5 18924 -0.1548 12.010000
18925 ha 16414 TPS HA5 18925 0.1282 1.008000
18926 ca 16414 TPS CA4 18926 -0.1028 12.010000
18927 ha 16414 TPS HA4 18927 0.1262 1.008000
18928 ca 16414 TPS CA3 18928 -0.1548 12.010000
18929 ha 16414 TPS HA3 18929 0.1282 1.008000
18930 ha 16415 TPS HA2 18930 0.1332 1.008000
18931 ca 16415 TPS CA2 18931 -0.0753 12.010000
18932 ca 16415 TPS CA1 18932 -0.361 12.010000
18933 si 16415 TPS Si 18933 1.1 28.085000
18934 ca 16415 TPS CA6 18934 -0.0753 12.010000
18935 ha 16415 TPS HH6 18935 0.1332 1.008000
18936 ca 16415 TPS CA5 18936 -0.1548 12.010000
18937 ha 16415 TPS HA5 18937 0.1282 1.008000
18938 ca 16415 TPS CA4 18938 -0.1028 12.010000
18939 ha 16415 TPS HA4 18939 0.1262 1.008000
18940 ca 16415 TPS CA3 18940 -0.1548 12.010000
18941 ha 16415 TPS HA3 18941 0.1282 1.008000
18942 ha 16416 TPS HA2 18942 0.1332 1.008000
18943 ca 16416 TPS CA2 18943 -0.0753 12.010000
18944 ca 16416 TPS CA1 18944 -0.361 12.010000
18945 si 16416 TPS Si 18945 1.1 28.085000
18946 ca 16416 TPS CA6 18946 -0.0753 12.010000
18947 ha 16416 TPS HH6 18947 0.1332 1.008000
18948 ca 16416 TPS CA5 18948 -0.1548 12.010000
18949 ha 16416 TPS HA5 18949 0.1282 1.008000
18950 ca 16416 TPS CA4 18950 -0.1028 12.010000
18951 ha 16416 TPS HA4 18951 0.1262 1.008000
18952 ca 16416 TPS CA3 18952 -0.1548 12.010000
18953 ha 16416 TPS HA3 18953 0.1282 1.008000
18954 ha 16417 TPS HA2 18954 0.1332 1.008000
18955 ca 16417 TPS CA2 18955 -0.0753 12.010000
18956 ca 16417 TPS CA1 18956 -0.361 12.010000
18957 si 16417 TPS Si 18957 1.1 28.085000
18958 ca 16417 TPS CA6 18958 -0.0753 12.010000
18959 ha 16417 TPS HH6 18959 0.1332 1.008000
18960 ca 16417 TPS CA5 18960 -0.1548 12.010000
18961 ha 16417 TPS HA5 18961 0.1282 1.008000
18962 ca 16417 TPS CA4 18962 -0.1028 12.010000
18963 ha 16417 TPS HA4 18963 0.1262 1.008000
18964 ca 16417 TPS CA3 18964 -0.1548 12.010000
18965 ha 16417 TPS HA3 18965 0.1282 1.008000
18966 ha 16418 TPS HA2 18966 0.1332 1.008000
18967 ca 16418 TPS CA2 18967 -0.0753 12.010000
18968 ca 16418 TPS CA1 18968 -0.361 12.010000
18969 si 16418 TPS Si 18969 1.1 28.085000
18970 ca 16418 TPS CA6 18970 -0.0753 12.010000
18971 ha 16418 TPS HH6 18971 0.1332 1.008000
18972 ca 16418 TPS CA5 18972 -0.1548 12.010000
18973 ha 16418 TPS HA5 18973 0.1282 1.008000
18974 ca 16418 TPS CA4 18974 -0.1028 12.010000
18975 ha 16418 TPS HA4 18975 0.1262 1.008000
18976 ca 16418 TPS CA3 18976 -0.1548 12.010000
18977 ha 16418 TPS HA3 18977 0.1282 1.008000
18978 ha 16419 TPS HA2 18978 0.1332 1.008000
18979 ca 16419 TPS CA2 18979 -0.0753 12.010000
18980 ca 16419 TPS CA1 18980 -0.361 12.010000
18981 si 16419 TPS Si 18981 1.1 28.085000
18982 ca 16419 TPS CA6 18982 -0.0753 12.010000
18983 ha 16419 TPS HH6 18983 0.1332 1.008000
18984 ca 16419 TPS CA5 18984 -0.1548 12.010000
18985 ha 16419 TPS HA5 18985 0.1282 1.008000
18986 ca 16419 TPS CA4 18986 -0.1028 12.010000
18987 ha 16419 TPS HA4 18987 0.1262 1.008000
18988 ca 16419 TPS CA3 18988 -0.1548 12.010000
18989 ha 16419 TPS HA3 18989 0.1282 1.008000
18990 ha 16420 TPS HA2 18990 0.1332 1.008000
18991 ca 16420 TPS CA2 18991 -0.0753 12.010000
18992 ca 16420 TPS CA1 18992 -0.361 12.010000
18993 si 16420 TPS Si 18993 1.1 28.085000
18994 ca 16420 TPS CA6 18994 -0.0753 12.010000
18995 ha 16420 TPS HH6 18995 0.1332 1.008000
18996 ca 16420 TPS CA5 18996 -0.1548 12.010000
18997 ha 16420 TPS HA5 18997 0.1282 1.008000
18998 ca 16420 TPS CA4 18998 -0.1028 12.010000
18999 ha 16420 TPS HA4 18999 0.1262 1.008000
19000 ca 16420 TPS CA3 19000 -0.1548 12.010000
19001 ha 16420 TPS HA3 19001 0.1282 1.008000
19002 ha 16421 TPS HA2 19002 0.1332 1.008000
19003 ca 16421 TPS CA2 19003 -0.0753 12.010000
19004 ca 16421 TPS CA1 19004 -0.361 12.010000
19005 si 16421 TPS Si 19005 1.1 28.085000
19006 ca 16421 TPS CA6 19006 -0.0753 12.010000
19007 ha 16421 TPS HH6 19007 0.1332 1.008000
19008 ca 16421 TPS CA5 19008 -0.1548 12.010000
19009 ha 16421 TPS HA5 19009 0.1282 1.008000
19010 ca 16421 TPS CA4 19010 -0.1028 12.010000
19011 ha 16421 TPS HA4 19011 0.1262 1.008000
19012 ca 16421 TPS CA3 19012 -0.1548 12.010000
19013 ha 16421 TPS HA3 19013 0.1282 1.008000
19014 ha 16422 TPS HA2 19014 0.1332 1.008000
19015 ca 16422 TPS CA2 19015 -0.0753 12.010000
19016 ca 16422 TPS CA1 19016 -0.361 12.010000
19017 si 16422 TPS Si 19017 1.1 28.085000
19018 ca 16422 TPS CA6 19018 -0.0753 12.010000
19019 ha 16422 TPS HH6 19019 0.1332 1.008000
19020 ca 16422 TPS CA5 19020 -0.1548 12.010000
19021 ha 16422 TPS HA5 19021 0.1282 1.008000
19022 ca 16422 TPS CA4 19022 -0.1028 12.010000
19023 ha 16422 TPS HA4 19023 0.1262 1.008000
19024 ca 16422 TPS CA3 19024 -0.1548 12.010000
19025 ha 16422 TPS HA3 19025 0.1282 1.008000
19026 ha 16423 TPS HA2 19026 0.1332 1.008000
19027 ca 16423 TPS CA2 19027 -0.0753 12.010000
19028 ca 16423 TPS CA1 19028 -0.361 12.010000
19029 si 16423 TPS Si 19029 1.1 28.085000
19030 ca 16423 TPS CA6 19030 -0.0753 12.010000
19031 ha 16423 TPS HH6 19031 0.1332 1.008000
19032 ca 16423 TPS CA5 19032 -0.1548 12.010000
19033 ha 16423 TPS HA5 19033 0.1282 1.008000
19034 ca 16423 TPS CA4 19034 -0.1028 12.010000
19035 ha 16423 TPS HA4 19035 0.1262 1.008000
19036 ca 16423 TPS CA3 19036 -0.1548 12.010000
19037 ha 16423 TPS HA3 19037 0.1282 1.008000
19038 ha 16424 TPS HA2 19038 0.1332 1.008000
19039 ca 16424 TPS CA2 19039 -0.0753 12.010000
19040 ca 16424 TPS CA1 19040 -0.361 12.010000
19041 si 16424 TPS Si 19041 1.1 28.085000
19042 ca 16424 TPS CA6 19042 -0.0753 12.010000
19043 ha 16424 TPS HH6 19043 0.1332 1.008000
19044 ca 16424 TPS CA5 19044 -0.1548 12.010000
19045 ha 16424 TPS HA5 19045 0.1282 1.008000
19046 ca 16424 TPS CA4 19046 -0.1028 12.010000
19047 ha 16424 TPS HA4 19047 0.1262 1.008000
19048 ca 16424 TPS CA3 19048 -0.1548 12.010000
19049 ha 16424 TPS HA3 19049 0.1282 1.008000
19050 ha 16425 TPS HA2 19050 0.1332 1.008000
19051 ca 16425 TPS CA2 19051 -0.0753 12.010000
19052 ca 16425 TPS CA1 19052 -0.361 12.010000
19053 si 16425 TPS Si 19053 1.1 28.085000
19054 ca 16425 TPS CA6 19054 -0.0753 12.010000
19055 ha 16425 TPS HH6 19055 0.1332 1.008000
19056 ca 16425 TPS CA5 19056 -0.1548 12.010000
19057 ha 16425 TPS HA5 19057 0.1282 1.008000
19058 ca 16425 TPS CA4 19058 -0.1028 12.010000
19059 ha 16425 TPS HA4 19059 0.1262 1.008000
19060 ca 16425 TPS CA3 19060 -0.1548 12.010000
19061 ha 16425 TPS HA3 19061 0.1282 1.008000
19062 ha 16426 TPS HA2 19062 0.1332 1.008000
19063 ca 16426 TPS CA2 19063 -0.0753 12.010000
19064 ca 16426 TPS CA1 19064 -0.361 12.010000
19065 si 16426 TPS Si 19065 1.1 28.085000
19066 ca 16426 TPS CA6 19066 -0.0753 12.010000
19067 ha 16426 TPS HH6 19067 0.1332 1.008000
19068 ca 16426 TPS CA5 19068 -0.1548 12.010000
19069 ha 16426 TPS HA5 19069 0.1282 1.008000
19070 ca 16426 TPS CA4 19070 -0.1028 12.010000
19071 ha 16426 TPS HA4 19071 0.1262 1.008000
19072 ca 16426 TPS CA3 19072 -0.1548 12.010000
19073 ha 16426 TPS HA3 19073 0.1282 1.008000
19074 ha 16427 TPS HA2 19074 0.1332 1.008000
19075 ca 16427 TPS CA2 19075 -0.0753 12.010000
19076 ca 16427 TPS CA1 19076 -0.361 12.010000
19077 si 16427 TPS Si 19077 1.1 28.085000
19078 ca 16427 TPS CA6 19078 -0.0753 12.010000
19079 ha 16427 TPS HH6 19079 0.1332 1.008000
19080 ca 16427 TPS CA5 19080 -0.1548 12.010000
19081 ha 16427 TPS HA5 19081 0.1282 1.008000
19082 ca 16427 TPS CA4 19082 -0.1028 12.010000
19083 ha 16427 TPS HA4 19083 0.1262 1.008000
19084 ca 16427 TPS CA3 19084 -0.1548 12.010000
19085 ha 16427 TPS HA3 19085 0.1282 1.008000
19086 ha 16428 TPS HA2 19086 0.1332 1.008000
19087 ca 16428 TPS CA2 19087 -0.0753 12.010000
19088 ca 16428 TPS CA1 19088 -0.361 12.010000
19089 si 16428 TPS Si 19089 1.1 28.085000
19090 ca 16428 TPS CA6 19090 -0.0753 12.010000
19091 ha 16428 TPS HH6 19091 0.1332 1.008000
19092 ca 16428 TPS CA5 19092 -0.1548 12.010000
19093 ha 16428 TPS HA5 19093 0.1282 1.008000
19094 ca 16428 TPS CA4 19094 -0.1028 12.010000
19095 ha 16428 TPS HA4 19095 0.1262 1.008000
19096 ca 16428 TPS CA3 19096 -0.1548 12.010000
19097 ha 16428 TPS HA3 19097 0.1282 1.008000
19098 ha 16429 TPS HA2 19098 0.1332 1.008000
19099 ca 16429 TPS CA2 19099 -0.0753 12.010000
19100 ca 16429 TPS CA1 19100 -0.361 12.010000
19101 si 16429 TPS Si 19101 1.1 28.085000
19102 ca 16429 TPS CA6 19102 -0.0753 12.010000
19103 ha 16429 TPS HH6 19103 0.1332 1.008000
19104 ca 16429 TPS CA5 19104 -0.1548 12.010000
19105 ha 16429 TPS HA5 19105 0.1282 1.008000
19106 ca 16429 TPS CA4 19106 -0.1028 12.010000
19107 ha 16429 TPS HA4 19107 0.1262 1.008000
19108 ca 16429 TPS CA3 19108 -0.1548 12.010000
19109 ha 16429 TPS HA3 19109 0.1282 1.008000
19110 ha 16430 TPS HA2 19110 0.1332 1.008000
19111 ca 16430 TPS CA2 19111 -0.0753 12.010000
19112 ca 16430 TPS CA1 19112 -0.361 12.010000
19113 si 16430 TPS Si 19113 1.1 28.085000
19114 ca 16430 TPS CA6 19114 -0.0753 12.010000
19115 ha 16430 TPS HH6 19115 0.1332 1.008000
19116 ca 16430 TPS CA5 19116 -0.1548 12.010000
19117 ha 16430 TPS HA5 19117 0.1282 1.008000
19118 ca 16430 TPS CA4 19118 -0.1028 12.010000
19119 ha 16430 TPS HA4 19119 0.1262 1.008000
19120 ca 16430 TPS CA3 19120 -0.1548 12.010000
19121 ha 16430 TPS HA3 19121 0.1282 1.008000
19122 ha 16431 TPS HA2 19122 0.1332 1.008000
19123 ca 16431 TPS CA2 19123 -0.0753 12.010000
19124 ca 16431 TPS CA1 19124 -0.361 12.010000
19125 si 16431 TPS Si 19125 1.1 28.085000
19126 ca 16431 TPS CA6 19126 -0.0753 12.010000
19127 ha 16431 TPS HH6 19127 0.1332 1.008000
19128 ca 16431 TPS CA5 19128 -0.1548 12.010000
19129 ha 16431 TPS HA5 19129 0.1282 1.008000
19130 ca 16431 TPS CA4 19130 -0.1028 12.010000
19131 ha 16431 TPS HA4 19131 0.1262 1.008000
19132 ca 16431 TPS CA3 19132 -0.1548 12.010000
19133 ha 16431 TPS HA3 19133 0.1282 1.008000
19134 ha 16432 TPS HA2 19134 0.1332 1.008000
19135 ca 16432 TPS CA2 19135 -0.0753 12.010000
19136 ca 16432 TPS CA1 19136 -0.361 12.010000
19137 si 16432 TPS Si 19137 1.1 28.085000
19138 ca 16432 TPS CA6 19138 -0.0753 12.010000
19139 ha 16432 TPS HH6 19139 0.1332 1.008000
19140 ca 16432 TPS CA5 19140 -0.1548 12.010000
19141 ha 16432 TPS HA5 19141 0.1282 1.008000
19142 ca 16432 TPS CA4 19142 -0.1028 12.010000
19143 ha 16432 TPS HA4 19143 0.1262 1.008000
19144 ca 16432 TPS CA3 19144 -0.1548 12.010000
19145 ha 16432 TPS HA3 19145 0.1282 1.008000
19146 ha 16433 TPS HA2 19146 0.1332 1.008000
19147 ca 16433 TPS CA2 19147 -0.0753 12.010000
19148 ca 16433 TPS CA1 19148 -0.361 12.010000
19149 si 16433 TPS Si 19149 1.1 28.085000
19150 ca 16433 TPS CA6 19150 -0.0753 12.010000
19151 ha 16433 TPS HH6 19151 0.1332 1.008000
19152 ca 16433 TPS CA5 19152 -0.1548 12.010000
19153 ha 16433 TPS HA5 19153 0.1282 1.008000
19154 ca 16433 TPS CA4 19154 -0.1028 12.010000
19155 ha 16433 TPS HA4 19155 0.1262 1.008000
19156 ca 16433 TPS CA3 19156 -0.1548 12.010000
19157 ha 16433 TPS HA3 19157 0.1282 1.008000
19158 ha 16434 TPS HA2 19158 0.1332 1.008000
19159 ca 16434 TPS CA2 19159 -0.0753 12.010000
19160 ca 16434 TPS CA1 19160 -0.361 12.010000
19161 si 16434 TPS Si 19161 1.1 28.085000
19162 ca 16434 TPS CA6 19162 -0.0753 12.010000
19163 ha 16434 TPS HH6 19163 0.1332 1.008000
19164 ca 16434 TPS CA5 19164 -0.1548 12.010000
19165 ha 16434 TPS HA5 19165 0.1282 1.008000
19166 ca 16434 TPS CA4 19166 -0.1028 12.010000
19167 ha 16434 TPS HA4 19167 0.1262 1.008000
19168 ca 16434 TPS CA3 19168 -0.1548 12.010000
19169 ha 16434 TPS HA3 19169 0.1282 1.008000
19170 ha 16435 TPS HA2 19170 0.1332 1.008000
19171 ca 16435 TPS CA2 19171 -0.0753 12.010000
19172 ca 16435 TPS CA1 19172 -0.361 12.010000
19173 si 16435 TPS Si 19173 1.1 28.085000
19174 ca 16435 TPS CA6 19174 -0.0753 12.010000
19175 ha 16435 TPS HH6 19175 0.1332 1.008000
19176 ca 16435 TPS CA5 19176 -0.1548 12.010000
19177 ha 16435 TPS HA5 19177 0.1282 1.008000
19178 ca 16435 TPS CA4 19178 -0.1028 12.010000
19179 ha 16435 TPS HA4 19179 0.1262 1.008000
19180 ca 16435 TPS CA3 19180 -0.1548 12.010000
19181 ha 16435 TPS HA3 19181 0.1282 1.008000
19182 ha 16436 TPS HA2 19182 0.1332 1.008000
19183 ca 16436 TPS CA2 19183 -0.0753 12.010000
19184 ca 16436 TPS CA1 19184 -0.361 12.010000
19185 si 16436 TPS Si 19185 1.1 28.085000
19186 ca 16436 TPS CA6 19186 -0.0753 12.010000
19187 ha 16436 TPS HH6 19187 0.1332 1.008000
19188 ca 16436 TPS CA5 19188 -0.1548 12.010000
19189 ha 16436 TPS HA5 19189 0.1282 1.008000
19190 ca 16436 TPS CA4 19190 -0.1028 12.010000
19191 ha 16436 TPS HA4 19191 0.1262 1.008000
19192 ca 16436 TPS CA3 19192 -0.1548 12.010000
19193 ha 16436 TPS HA3 19193 0.1282 1.008000
19194 ha 16437 TPS HA2 19194 0.1332 1.008000
19195 ca 16437 TPS CA2 19195 -0.0753 12.010000
19196 ca 16437 TPS CA1 19196 -0.361 12.010000
19197 si 16437 TPS Si 19197 1.1 28.085000
19198 ca 16437 TPS CA6 19198 -0.0753 12.010000
19199 ha 16437 TPS HH6 19199 0.1332 1.008000
19200 ca 16437 TPS CA5 19200 -0.1548 12.010000
19201 ha 16437 TPS HA5 19201 0.1282 1.008000
19202 ca 16437 TPS CA4 19202 -0.1028 12.010000
19203 ha 16437 TPS HA4 19203 0.1262 1.008000
19204 ca 16437 TPS CA3 19204 -0.1548 12.010000
19205 ha 16437 TPS HA3 19205 0.1282 1.008000
19206 ha 16438 TPS HA2 19206 0.1332 1.008000
19207 ca 16438 TPS CA2 19207 -0.0753 12.010000
19208 ca 16438 TPS CA1 19208 -0.361 12.010000
19209 si 16438 TPS Si 19209 1.1 28.085000
19210 ca 16438 TPS CA6 19210 -0.0753 12.010000
19211 ha 16438 TPS HH6 19211 0.1332 1.008000
19212 ca 16438 TPS CA5 19212 -0.1548 12.010000
19213 ha 16438 TPS HA5 19213 0.1282 1.008000
19214 ca 16438 TPS CA4 19214 -0.1028 12.010000
19215 ha 16438 TPS HA4 19215 0.1262 1.008000
19216 ca 16438 TPS CA3 19216 -0.1548 12.010000
19217 ha 16438 TPS HA3 19217 0.1282 1.008000
19218 ha 16439 TPS HA2 19218 0.1332 1.008000
19219 ca 16439 TPS CA2 19219 -0.0753 12.010000
19220 ca 16439 TPS CA1 19220 -0.361 12.010000
19221 si 16439 TPS Si 19221 1.1 28.085000
19222 ca 16439 TPS CA6 19222 -0.0753 12.010000
19223 ha 16439 TPS HH6 19223 0.1332 1.008000
19224 ca 16439 TPS CA5 19224 -0.1548 12.010000
19225 ha 16439 TPS HA5 19225 0.1282 1.008000
19226 ca 16439 TPS CA4 19226 -0.1028 12.010000
19227 ha 16439 TPS HA4 19227 0.1262 1.008000
19228 ca 16439 TPS CA3 19228 -0.1548 12.010000
19229 ha 16439 TPS HA3 19229 0.1282 1.008000
19230 ha 16440 TPS HA2 19230 0.1332 1.008000
19231 ca 16440 TPS CA2 19231 -0.0753 12.010000
19232 ca 16440 TPS CA1 19232 -0.361 12.010000
19233 si 16440 TPS Si 19233 1.1 28.085000
19234 ca 16440 TPS CA6 19234 -0.0753 12.010000
19235 ha 16440 TPS HH6 19235 0.1332 1.008000
19236 ca 16440 TPS CA5 19236 -0.1548 12.010000
19237 ha 16440 TPS HA5 19237 0.1282 1.008000
19238 ca 16440 TPS CA4 19238 -0.1028 12.010000
19239 ha 16440 TPS HA4 19239 0.1262 1.008000
19240 ca 16440 TPS CA3 19240 -0.1548 12.010000
19241 ha 16440 TPS HA3 19241 0.1282 1.008000
19242 ha 16441 TPS HA2 19242 0.1332 1.008000
19243 ca 16441 TPS CA2 19243 -0.0753 12.010000
19244 ca 16441 TPS CA1 19244 -0.361 12.010000
19245 si 16441 TPS Si 19245 1.1 28.085000
19246 ca 16441 TPS CA6 19246 -0.0753 12.010000
19247 ha 16441 TPS HH6 19247 0.1332 1.008000
19248 ca 16441 TPS CA5 19248 -0.1548 12.010000
19249 ha 16441 TPS HA5 19249 0.1282 1.008000
19250 ca 16441 TPS CA4 19250 -0.1028 12.010000
19251 ha 16441 TPS HA4 19251 0.1262 1.008000
19252 ca 16441 TPS CA3 19252 -0.1548 12.010000
19253 ha 16441 TPS HA3 19253 0.1282 1.008000
19254 ha 16442 TPS HA2 19254 0.1332 1.008000
19255 ca 16442 TPS CA2 19255 -0.0753 12.010000
19256 ca 16442 TPS CA1 19256 -0.361 12.010000
19257 si 16442 TPS Si 19257 1.1 28.085000
19258 ca 16442 TPS CA6 19258 -0.0753 12.010000
19259 ha 16442 TPS HH6 19259 0.1332 1.008000
19260 ca 16442 TPS CA5 19260 -0.1548 12.010000
19261 ha 16442 TPS HA5 19261 0.1282 1.008000
19262 ca 16442 TPS CA4 19262 -0.1028 12.010000
19263 ha 16442 TPS HA4 19263 0.1262 1.008000
19264 ca 16442 TPS CA3 19264 -0.1548 12.010000
19265 ha 16442 TPS HA3 19265 0.1282 1.008000
19266 ha 16443 TPS HA2 19266 0.1332 1.008000
19267 ca 16443 TPS CA2 19267 -0.0753 12.010000
19268 ca 16443 TPS CA1 19268 -0.361 12.010000
19269 si 16443 TPS Si 19269 1.1 28.085000
19270 ca 16443 TPS CA6 19270 -0.0753 12.010000
19271 ha 16443 TPS HH6 19271 0.1332 1.008000
19272 ca 16443 TPS CA5 19272 -0.1548 12.010000
19273 ha 16443 TPS HA5 19273 0.1282 1.008000
19274 ca 16443 TPS CA4 19274 -0.1028 12.010000
19275 ha 16443 TPS HA4 19275 0.1262 1.008000
19276 ca 16443 TPS CA3 19276 -0.1548 12.010000
19277 ha 16443 TPS HA3 19277 0.1282 1.008000
19278 ha 16444 TPS HA2 19278 0.1332 1.008000
19279 ca 16444 TPS CA2 19279 -0.0753 12.010000
19280 ca 16444 TPS CA1 19280 -0.361 12.010000
19281 si 16444 TPS Si 19281 1.1 28.085000
19282 ca 16444 TPS CA6 19282 -0.0753 12.010000
19283 ha 16444 TPS HH6 19283 0.1332 1.008000
19284 ca 16444 TPS CA5 19284 -0.1548 12.010000
19285 ha 16444 TPS HA5 19285 0.1282 1.008000
19286 ca 16444 TPS CA4 19286 -0.1028 12.010000
19287 ha 16444 TPS HA4 19287 0.1262 1.008000
19288 ca 16444 TPS CA3 19288 -0.1548 12.010000
19289 ha 16444 TPS HA3 19289 0.1282 1.008000
19290 ha 16445 TPS HA2 19290 0.1332 1.008000
19291 ca 16445 TPS CA2 19291 -0.0753 12.010000
19292 ca 16445 TPS CA1 19292 -0.361 12.010000
19293 si 16445 TPS Si 19293 1.1 28.085000
19294 ca 16445 TPS CA6 19294 -0.0753 12.010000
19295 ha 16445 TPS HH6 19295 0.1332 1.008000
19296 ca 16445 TPS CA5 19296 -0.1548 12.010000
19297 ha 16445 TPS HA5 19297 0.1282 1.008000
19298 ca 16445 TPS CA4 19298 -0.1028 12.010000
19299 ha 16445 TPS HA4 19299 0.1262 1.008000
19300 ca 16445 TPS CA3 19300 -0.1548 12.010000
19301 ha 16445 TPS HA3 19301 0.1282 1.008000
19302 ha 16446 TPS HA2 19302 0.1332 1.008000
19303 ca 16446 TPS CA2 19303 -0.0753 12.010000
19304 ca 16446 TPS CA1 19304 -0.361 12.010000
19305 si 16446 TPS Si 19305 1.1 28.085000
19306 ca 16446 TPS CA6 19306 -0.0753 12.010000
19307 ha 16446 TPS HH6 19307 0.1332 1.008000
19308 ca 16446 TPS CA5 19308 -0.1548 12.010000
19309 ha 16446 TPS HA5 19309 0.1282 1.008000
19310 ca 16446 TPS CA4 19310 -0.1028 12.010000
19311 ha 16446 TPS HA4 19311 0.1262 1.008000
19312 ca 16446 TPS CA3 19312 -0.1548 12.010000
19313 ha 16446 TPS HA3 19313 0.1282 1.008000
19314 ha 16447 TPS HA2 19314 0.1332 1.008000
19315 ca 16447 TPS CA2 19315 -0.0753 12.010000
19316 ca 16447 TPS CA1 19316 -0.361 12.010000
19317 si 16447 TPS Si 19317 1.1 28.085000
19318 ca 16447 TPS CA6 19318 -0.0753 12.010000
19319 ha 16447 TPS HH6 19319 0.1332 1.008000
19320 ca 16447 TPS CA5 19320 -0.1548 12.010000
19321 ha 16447 TPS HA5 19321 0.1282 1.008000
19322 ca 16447 TPS CA4 19322 -0.1028 12.010000
19323 ha 16447 TPS HA4 19323 0.1262 1.008000
19324 ca 16447 TPS CA3 19324 -0.1548 12.010000
19325 ha 16447 TPS HA3 19325 0.1282 1.008000
19326 ha 16448 TPS HA2 19326 0.1332 1.008000
19327 ca 16448 TPS CA2 19327 -0.0753 12.010000
19328 ca 16448 TPS CA1 19328 -0.361 12.010000
19329 si 16448 TPS Si 19329 1.1 28.085000
19330 ca 16448 TPS CA6 19330 -0.0753 12.010000
19331 ha 16448 TPS HH6 19331 0.1332 1.008000
19332 ca 16448 TPS CA5 19332 -0.1548 12.010000
19333 ha 16448 TPS HA5 19333 0.1282 1.008000
19334 ca 16448 TPS CA4 19334 -0.1028 12.010000
19335 ha 16448 TPS HA4 19335 0.1262 1.008000
19336 ca 16448 TPS CA3 19336 -0.1548 12.010000
19337 ha 16448 TPS HA3 19337 0.1282 1.008000
19338 ha 16449 TPS HA2 19338 0.1332 1.008000
19339 ca 16449 TPS CA2 19339 -0.0753 12.010000
19340 ca 16449 TPS CA1 19340 -0.361 12.010000
19341 si 16449 TPS Si 19341 1.1 28.085000
19342 ca 16449 TPS CA6 19342 -0.0753 12.010000
19343 ha 16449 TPS HH6 19343 0.1332 1.008000
19344 ca 16449 TPS CA5 19344 -0.1548 12.010000
19345 ha 16449 TPS HA5 19345 0.1282 1.008000
19346 ca 16449 TPS CA4 19346 -0.1028 12.010000
19347 ha 16449 TPS HA4 19347 0.1262 1.008000
19348 ca 16449 TPS CA3 19348 -0.1548 12.010000
19349 ha 16449 TPS HA3 19349 0.1282 1.008000
19350 ha 16450 TPS HA2 19350 0.1332 1.008000
19351 ca 16450 TPS CA2 19351 -0.0753 12.010000
19352 ca 16450 TPS CA1 19352 -0.361 12.010000
19353 si 16450 TPS Si 19353 1.1 28.085000
19354 ca 16450 TPS CA6 19354 -0.0753 12.010000
19355 ha 16450 TPS HH6 19355 0.1332 1.008000
19356 ca 16450 TPS CA5 19356 -0.1548 12.010000
19357 ha 16450 TPS HA5 19357 0.1282 1.008000
19358 ca 16450 TPS CA4 19358 -0.1028 12.010000
19359 ha 16450 TPS HA4 19359 0.1262 1.008000
19360 ca 16450 TPS CA3 19360 -0.1548 12.010000
19361 ha 16450 TPS HA3 19361 0.1282 1.008000
19362 ha 16451 TPS HA2 19362 0.1332 1.008000
19363 ca 16451 TPS CA2 19363 -0.0753 12.010000
19364 ca 16451 TPS CA1 19364 -0.361 12.010000
19365 si 16451 TPS Si 19365 1.1 28.085000
19366 ca 16451 TPS CA6 19366 -0.0753 12.010000
19367 ha 16451 TPS HH6 19367 0.1332 1.008000
19368 ca 16451 TPS CA5 19368 -0.1548 12.010000
19369 ha 16451 TPS HA5 19369 0.1282 1.008000
19370 ca 16451 TPS CA4 19370 -0.1028 12.010000
19371 ha 16451 TPS HA4 19371 0.1262 1.008000
19372 ca 16451 TPS CA3 19372 -0.1548 12.010000
19373 ha 16451 TPS HA3 19373 0.1282 1.008000
19374 ha 16452 TPS HA2 19374 0.1332 1.008000
19375 ca 16452 TPS CA2 19375 -0.0753 12.010000
19376 ca 16452 TPS CA1 19376 -0.361 12.010000
19377 si 16452 TPS Si 19377 1.1 28.085000
19378 ca 16452 TPS CA6 19378 -0.0753 12.010000
19379 ha 16452 TPS HH6 19379 0.1332 1.008000
19380 ca 16452 TPS CA5 19380 -0.1548 12.010000
19381 ha 16452 TPS HA5 19381 0.1282 1.008000
19382 ca 16452 TPS CA4 19382 -0.1028 12.010000
19383 ha 16452 TPS HA4 19383 0.1262 1.008000
19384 ca 16452 TPS CA3 19384 -0.1548 12.010000
19385 ha 16452 TPS HA3 19385 0.1282 1.008000
19386 ha 16453 TPS HA2 19386 0.1332 1.008000
19387 ca 16453 TPS CA2 19387 -0.0753 12.010000
19388 ca 16453 TPS CA1 19388 -0.361 12.010000
19389 si 16453 TPS Si 19389 1.1 28.085000
19390 ca 16453 TPS CA6 19390 -0.0753 12.010000
19391 ha 16453 TPS HH6 19391 0.1332 1.008000
19392 ca 16453 TPS CA5 19392 -0.1548 12.010000
19393 ha 16453 TPS HA5 19393 0.1282 1.008000
19394 ca 16453 TPS CA4 19394 -0.1028 12.010000
19395 ha 16453 TPS HA4 19395 0.1262 1.008000
19396 ca 16453 TPS CA3 19396 -0.1548 12.010000
19397 ha 16453 TPS HA3 19397 0.1282 1.008000
19398 ha 16454 TPS HA2 19398 0.1332 1.008000
19399 ca 16454 TPS CA2 19399 -0.0753 12.010000
19400 ca 16454 TPS CA1 19400 -0.361 12.010000
19401 si 16454 TPS Si 19401 1.1 28.085000
19402 ca 16454 TPS CA6 19402 -0.0753 12.010000
19403 ha 16454 TPS HH6 19403 0.1332 1.008000
19404 ca 16454 TPS CA5 19404 -0.1548 12.010000
19405 ha 16454 TPS HA5 19405 0.1282 1.008000
19406 ca 16454 TPS CA4 19406 -0.1028 12.010000
19407 ha 16454 TPS HA4 19407 0.1262 1.008000
19408 ca 16454 TPS CA3 19408 -0.1548 12.010000
19409 ha 16454 TPS HA3 19409 0.1282 1.008000
19410 ha 16455 TPS HA2 19410 0.1332 1.008000
19411 ca 16455 TPS CA2 19411 -0.0753 12.010000
19412 ca 16455 TPS CA1 19412 -0.361 12.010000
19413 si 16455 TPS Si 19413 1.1 28.085000
19414 ca 16455 TPS CA6 19414 -0.0753 12.010000
19415 ha 16455 TPS HH6 19415 0.1332 1.008000
19416 ca 16455 TPS CA5 19416 -0.1548 12.010000
19417 ha 16455 TPS HA5 19417 0.1282 1.008000
19418 ca 16455 TPS CA4 19418 -0.1028 12.010000
19419 ha 16455 TPS HA4 19419 0.1262 1.008000
19420 ca 16455 TPS CA3 19420 -0.1548 12.010000
19421 ha 16455 TPS HA3 19421 0.1282 1.008000
19422 ha 16456 TPS HA2 19422 0.1332 1.008000
19423 ca 16456 TPS CA2 19423 -0.0753 12.010000
19424 ca 16456 TPS CA1 19424 -0.361 12.010000
19425 si 16456 TPS Si 19425 1.1 28.085000
19426 ca 16456 TPS CA6 19426 -0.0753 12.010000
19427 ha 16456 TPS HH6 19427 0.1332 1.008000
19428 ca 16456 TPS CA5 19428 -0.1548 12.010000
19429 ha 16456 TPS HA5 19429 0.1282 1.008000
19430 ca 16456 TPS CA4 19430 -0.1028 12.010000
19431 ha 16456 TPS HA4 19431 0.1262 1.008000
19432 ca 16456 TPS CA3 19432 -0.1548 12.010000
19433 ha 16456 TPS HA3 19433 0.1282 1.008000
19434 ha 16457 TPS HA2 19434 0.1332 1.008000
19435 ca 16457 TPS CA2 19435 -0.0753 12.010000
19436 ca 16457 TPS CA1 19436 -0.361 12.010000
19437 si 16457 TPS Si 19437 1.1 28.085000
19438 ca 16457 TPS CA6 19438 -0.0753 12.010000
19439 ha 16457 TPS HH6 19439 0.1332 1.008000
19440 ca 16457 TPS CA5 19440 -0.1548 12.010000
19441 ha 16457 TPS HA5 19441 0.1282 1.008000
19442 ca 16457 TPS CA4 19442 -0.1028 12.010000
19443 ha 16457 TPS HA4 19443 0.1262 1.008000
19444 ca 16457 TPS CA3 19444 -0.1548 12.010000
19445 ha 16457 TPS HA3 19445 0.1282 1.008000
19446 ha 16458 TPS HA2 19446 0.1332 1.008000
19447 ca 16458 TPS CA2 19447 -0.0753 12.010000
19448 ca 16458 TPS CA1 19448 -0.361 12.010000
19449 si 16458 TPS Si 19449 1.1 28.085000
19450 ca 16458 TPS CA6 19450 -0.0753 12.010000
19451 ha 16458 TPS HH6 19451 0.1332 1.008000
19452 ca 16458 TPS CA5 19452 -0.1548 12.010000
19453 ha 16458 TPS HA5 19453 0.1282 1.008000
19454 ca 16458 TPS CA4 19454 -0.1028 12.010000
19455 ha 16458 TPS HA4 19455 0.1262 1.008000
19456 ca 16458 TPS CA3 19456 -0.1548 12.010000
19457 ha 16458 TPS HA3 19457 0.1282 1.008000
19458 ha 16459 TPS HA2 19458 0.1332 1.008000
19459 ca 16459 TPS CA2 19459 -0.0753 12.010000
19460 ca 16459 TPS CA1 19460 -0.361 12.010000
19461 si 16459 TPS Si 19461 1.1 28.085000
19462 ca 16459 TPS CA6 19462 -0.0753 12.010000
19463 ha 16459 TPS HH6 19463 0.1332 1.008000
19464 ca 16459 TPS CA5 19464 -0.1548 12.010000
19465 ha 16459 TPS HA5 19465 0.1282 1.008000
19466 ca 16459 TPS CA4 19466 -0.1028 12.010000
19467 ha 16459 TPS HA4 19467 0.1262 1.008000
19468 ca 16459 TPS CA3 19468 -0.1548 12.010000
19469 ha 16459 TPS HA3 19469 0.1282 1.008000
19470 ha 16460 TPS HA2 19470 0.1332 1.008000
19471 ca 16460 TPS CA2 19471 -0.0753 12.010000
19472 ca 16460 TPS CA1 19472 -0.361 12.010000
19473 si 16460 TPS Si 19473 1.1 28.085000
19474 ca 16460 TPS CA6 19474 -0.0753 12.010000
19475 ha 16460 TPS HH6 19475 0.1332 1.008000
19476 ca 16460 TPS CA5 19476 -0.1548 12.010000
19477 ha 16460 TPS HA5 19477 0.1282 1.008000
19478 ca 16460 TPS CA4 19478 -0.1028 12.010000
19479 ha 16460 TPS HA4 19479 0.1262 1.008000
19480 ca 16460 TPS CA3 19480 -0.1548 12.010000
19481 ha 16460 TPS HA3 19481 0.1282 1.008000
19482 ha 16461 TPS HA2 19482 0.1332 1.008000
19483 ca 16461 TPS CA2 19483 -0.0753 12.010000
19484 ca 16461 TPS CA1 19484 -0.361 12.010000
19485 si 16461 TPS Si 19485 1.1 28.085000
19486 ca 16461 TPS CA6 19486 -0.0753 12.010000
19487 ha 16461 TPS HH6 19487 0.1332 1.008000
19488 ca 16461 TPS CA5 19488 -0.1548 12.010000
19489 ha 16461 TPS HA5 19489 0.1282 1.008000
19490 ca 16461 TPS CA4 19490 -0.1028 12.010000
19491 ha 16461 TPS HA4 19491 0.1262 1.008000
19492 ca 16461 TPS CA3 19492 -0.1548 12.010000
19493 ha 16461 TPS HA3 19493 0.1282 1.008000
19494 ha 16462 TPS HA2 19494 0.1332 1.008000
19495 ca 16462 TPS CA2 19495 -0.0753 12.010000
19496 ca 16462 TPS CA1 19496 -0.361 12.010000
19497 si 16462 TPS Si 19497 1.1 28.085000
19498 ca 16462 TPS CA6 19498 -0.0753 12.010000
19499 ha 16462 TPS HH6 19499 0.1332 1.008000
19500 ca 16462 TPS CA5 19500 -0.1548 12.010000
19501 ha 16462 TPS HA5 19501 0.1282 1.008000
19502 ca 16462 TPS CA4 19502 -0.1028 12.010000
19503 ha 16462 TPS HA4 19503 0.1262 1.008000
19504 ca 16462 TPS CA3 19504 -0.1548 12.010000
19505 ha 16462 TPS HA3 19505 0.1282 1.008000
19506 ha 16463 TPS HA2 19506 0.1332 1.008000
19507 ca 16463 TPS CA2 19507 -0.0753 12.010000
19508 ca 16463 TPS CA1 19508 -0.361 12.010000
19509 si 16463 TPS Si 19509 1.1 28.085000
19510 ca 16463 TPS CA6 19510 -0.0753 12.010000
19511 ha 16463 TPS HH6 19511 0.1332 1.008000
19512 ca 16463 TPS CA5 19512 -0.1548 12.010000
19513 ha 16463 TPS HA5 19513 0.1282 1.008000
19514 ca 16463 TPS CA4 19514 -0.1028 12.010000
19515 ha 16463 TPS HA4 19515 0.1262 1.008000
19516 ca 16463 TPS CA3 19516 -0.1548 12.010000
19517 ha 16463 TPS HA3 19517 0.1282 1.008000
19518 ha 16464 TPS HA2 19518 0.1332 1.008000
19519 ca 16464 TPS CA2 19519 -0.0753 12.010000
19520 ca 16464 TPS CA1 19520 -0.361 12.010000
19521 si 16464 TPS Si 19521 1.1 28.085000
19522 ca 16464 TPS CA6 19522 -0.0753 12.010000
19523 ha 16464 TPS HH6 19523 0.1332 1.008000
19524 ca 16464 TPS CA5 19524 -0.1548 12.010000
19525 ha 16464 TPS HA5 19525 0.1282 1.008000
19526 ca 16464 TPS CA4 19526 -0.1028 12.010000
19527 ha 16464 TPS HA4 19527 0.1262 1.008000
19528 ca 16464 TPS CA3 19528 -0.1548 12.010000
19529 ha 16464 TPS HA3 19529 0.1282 1.008000
19530 ha 16465 TPS HA2 19530 0.1332 1.008000
19531 ca 16465 TPS CA2 19531 -0.0753 12.010000
19532 ca 16465 TPS CA1 19532 -0.361 12.010000
19533 si 16465 TPS Si 19533 1.1 28.085000
19534 ca 16465 TPS CA6 19534 -0.0753 12.010000
19535 ha 16465 TPS HH6 19535 0.1332 1.008000
19536 ca 16465 TPS CA5 19536 -0.1548 12.010000
19537 ha 16465 TPS HA5 19537 0.1282 1.008000
19538 ca 16465 TPS CA4 19538 -0.1028 12.010000
19539 ha 16465 TPS HA4 19539 0.1262 1.008000
19540 ca 16465 TPS CA3 19540 -0.1548 12.010000
19541 ha 16465 TPS HA3 19541 0.1282 1.008000
19542 ha 16466 TPS HA2 19542 0.1332 1.008000
19543 ca 16466 TPS CA2 19543 -0.0753 12.010000
19544 ca 16466 TPS CA1 19544 -0.361 12.010000
19545 si 16466 TPS Si 19545 1.1 28.085000
19546 ca 16466 TPS CA6 19546 -0.0753 12.010000
19547 ha 16466 TPS HH6 19547 0.1332 1.008000
19548 ca 16466 TPS CA5 19548 -0.1548 12.010000
19549 ha 16466 TPS HA5 19549 0.1282 1.008000
19550 ca 16466 TPS CA4 19550 -0.1028 12.010000
19551 ha 16466 TPS HA4 19551 0.1262 1.008000
19552 ca 16466 TPS CA3 19552 -0.1548 12.010000
19553 ha 16466 TPS HA3 19553 0.1282 1.008000
19554 ha 16467 TPS HA2 19554 0.1332 1.008000
19555 ca 16467 TPS CA2 19555 -0.0753 12.010000
19556 ca 16467 TPS CA1 19556 -0.361 12.010000
19557 si 16467 TPS Si 19557 1.1 28.085000
19558 ca 16467 TPS CA6 19558 -0.0753 12.010000
19559 ha 16467 TPS HH6 19559 0.1332 1.008000
19560 ca 16467 TPS CA5 19560 -0.1548 12.010000
19561 ha 16467 TPS HA5 19561 0.1282 1.008000
19562 ca 16467 TPS CA4 19562 -0.1028 12.010000
19563 ha 16467 TPS HA4 19563 0.1262 1.008000
19564 ca 16467 TPS CA3 19564 -0.1548 12.010000
19565 ha 16467 TPS HA3 19565 0.1282 1.008000
19566 ha 16468 TPS HA2 19566 0.1332 1.008000
19567 ca 16468 TPS CA2 19567 -0.0753 12.010000
19568 ca 16468 TPS CA1 19568 -0.361 12.010000
19569 si 16468 TPS Si 19569 1.1 28.085000
19570 ca 16468 TPS CA6 19570 -0.0753 12.010000
19571 ha 16468 TPS HH6 19571 0.1332 1.008000
19572 ca 16468 TPS CA5 19572 -0.1548 12.010000
19573 ha 16468 TPS HA5 19573 0.1282 1.008000
19574 ca 16468 TPS CA4 19574 -0.1028 12.010000
19575 ha 16468 TPS HA4 19575 0.1262 1.008000
19576 ca 16468 TPS CA3 19576 -0.1548 12.010000
19577 ha 16468 TPS HA3 19577 0.1282 1.008000
19578 ha 16469 TPS HA2 19578 0.1332 1.008000
19579 ca 16469 TPS CA2 19579 -0.0753 12.010000
19580 ca 16469 TPS CA1 19580 -0.361 12.010000
19581 si 16469 TPS Si 19581 1.1 28.085000
19582 ca 16469 TPS CA6 19582 -0.0753 12.010000
19583 ha 16469 TPS HH6 19583 0.1332 1.008000
19584 ca 16469 TPS CA5 19584 -0.1548 12.010000
19585 ha 16469 TPS HA5 19585 0.1282 1.008000
19586 ca 16469 TPS CA4 19586 -0.1028 12.010000
19587 ha 16469 TPS HA4 19587 0.1262 1.008000
19588 ca 16469 TPS CA3 19588 -0.1548 12.010000
19589 ha 16469 TPS HA3 19589 0.1282 1.008000
19590 ha 16470 TPS HA2 19590 0.1332 1.008000
19591 ca 16470 TPS CA2 19591 -0.0753 12.010000
19592 ca 16470 TPS CA1 19592 -0.361 12.010000
19593 si 16470 TPS Si 19593 1.1 28.085000
19594 ca 16470 TPS CA6 19594 -0.0753 12.010000
19595 ha 16470 TPS HH6 19595 0.1332 1.008000
19596 ca 16470 TPS CA5 19596 -0.1548 12.010000
19597 ha 16470 TPS HA5 19597 0.1282 1.008000
19598 ca 16470 TPS CA4 19598 -0.1028 12.010000
19599 ha 16470 TPS HA4 19599 0.1262 1.008000
19600 ca 16470 TPS CA3 19600 -0.1548 12.010000
19601 ha 16470 TPS HA3 19601 0.1282 1.008000
19602 ha 16471 TPS HA2 19602 0.1332 1.008000
19603 ca 16471 TPS CA2 19603 -0.0753 12.010000
19604 ca 16471 TPS CA1 19604 -0.361 12.010000
19605 si 16471 TPS Si 19605 1.1 28.085000
19606 ca 16471 TPS CA6 19606 -0.0753 12.010000
19607 ha 16471 TPS HH6 19607 0.1332 1.008000
19608 ca 16471 TPS CA5 19608 -0.1548 12.010000
19609 ha 16471 TPS HA5 19609 0.1282 1.008000
19610 ca 16471 TPS CA4 19610 -0.1028 12.010000
19611 ha 16471 TPS HA4 19611 0.1262 1.008000
19612 ca 16471 TPS CA3 19612 -0.1548 12.010000
19613 ha 16471 TPS HA3 19613 0.1282 1.008000
19614 ha 16472 TPS HA2 19614 0.1332 1.008000
19615 ca 16472 TPS CA2 19615 -0.0753 12.010000
19616 ca 16472 TPS CA1 19616 -0.361 12.010000
19617 si 16472 TPS Si 19617 1.1 28.085000
19618 ca 16472 TPS CA6 19618 -0.0753 12.010000
19619 ha 16472 TPS HH6 19619 0.1332 1.008000
19620 ca 16472 TPS CA5 19620 -0.1548 12.010000
19621 ha 16472 TPS HA5 19621 0.1282 1.008000
19622 ca 16472 TPS CA4 19622 -0.1028 12.010000
19623 ha 16472 TPS HA4 19623 0.1262 1.008000
19624 ca 16472 TPS CA3 19624 -0.1548 12.010000
19625 ha 16472 TPS HA3 19625 0.1282 1.008000
19626 ha 16473 TPS HA2 19626 0.1332 1.008000
19627 ca 16473 TPS CA2 19627 -0.0753 12.010000
19628 ca 16473 TPS CA1 19628 -0.361 12.010000
19629 si 16473 TPS Si 19629 1.1 28.085000
19630 ca 16473 TPS CA6 19630 -0.0753 12.010000
19631 ha 16473 TPS HH6 19631 0.1332 1.008000
19632 ca 16473 TPS CA5 19632 -0.1548 12.010000
19633 ha 16473 TPS HA5 19633 0.1282 1.008000
19634 ca 16473 TPS CA4 19634 -0.1028 12.010000
19635 ha 16473 TPS HA4 19635 0.1262 1.008000
19636 ca 16473 TPS CA3 19636 -0.1548 12.010000
19637 ha 16473 TPS HA3 19637 0.1282 1.008000
19638 ha 16474 TPS HA2 19638 0.1332 1.008000
19639 ca 16474 TPS CA2 19639 -0.0753 12.010000
19640 ca 16474 TPS CA1 19640 -0.361 12.010000
19641 si 16474 TPS Si 19641 1.1 28.085000
19642 ca 16474 TPS CA6 19642 -0.0753 12.010000
19643 ha 16474 TPS HH6 19643 0.1332 1.008000
19644 ca 16474 TPS CA5 19644 -0.1548 12.010000
19645 ha 16474 TPS HA5 19645 0.1282 1.008000
19646 ca 16474 TPS CA4 19646 -0.1028 12.010000
19647 ha 16474 TPS HA4 19647 0.1262 1.008000
19648 ca 16474 TPS CA3 19648 -0.1548 12.010000
19649 ha 16474 TPS HA3 19649 0.1282 1.008000
19650 ha 16475 TPS HA2 19650 0.1332 1.008000
19651 ca 16475 TPS CA2 19651 -0.0753 12.010000
19652 ca 16475 TPS CA1 19652 -0.361 12.010000
19653 si 16475 TPS Si 19653 1.1 28.085000
19654 ca 16475 TPS CA6 19654 -0.0753 12.010000
19655 ha 16475 TPS HH6 19655 0.1332 1.008000
19656 ca 16475 TPS CA5 19656 -0.1548 12.010000
19657 ha 16475 TPS HA5 19657 0.1282 1.008000
19658 ca 16475 TPS CA4 19658 -0.1028 12.010000
19659 ha 16475 TPS HA4 19659 0.1262 1.008000
19660 ca 16475 TPS CA3 19660 -0.1548 12.010000
19661 ha 16475 TPS HA3 19661 0.1282 1.008000
19662 ha 16476 TPS HA2 19662 0.1332 1.008000
19663 ca 16476 TPS CA2 19663 -0.0753 12.010000
19664 ca 16476 TPS CA1 19664 -0.361 12.010000
19665 si 16476 TPS Si 19665 1.1 28.085000
19666 ca 16476 TPS CA6 19666 -0.0753 12.010000
19667 ha 16476 TPS HH6 19667 0.1332 1.008000
19668 ca 16476 TPS CA5 19668 -0.1548 12.010000
19669 ha 16476 TPS HA5 19669 0.1282 1.008000
19670 ca 16476 TPS CA4 19670 -0.1028 12.010000
19671 ha 16476 TPS HA4 19671 0.1262 1.008000
19672 ca 16476 TPS CA3 19672 -0.1548 12.010000
19673 ha 16476 TPS HA3 19673 0.1282 1.008000
19674 ha 16477 TPS HA2 19674 0.1332 1.008000
19675 ca 16477 TPS CA2 19675 -0.0753 12.010000
19676 ca 16477 TPS CA1 19676 -0.361 12.010000
19677 si 16477 TPS Si 19677 1.1 28.085000
19678 ca 16477 TPS CA6 19678 -0.0753 12.010000
19679 ha 16477 TPS HH6 19679 0.1332 1.008000
19680 ca 16477 TPS CA5 19680 -0.1548 12.010000
19681 ha 16477 TPS HA5 19681 0.1282 1.008000
19682 ca 16477 TPS CA4 19682 -0.1028 12.010000
19683 ha 16477 TPS HA4 19683 0.1262 1.008000
19684 ca 16477 TPS CA3 19684 -0.1548 12.010000
19685 ha 16477 TPS HA3 19685 0.1282 1.008000
19686 ha 16478 TPS HA2 19686 0.1332 1.008000
19687 ca 16478 TPS CA2 19687 -0.0753 12.010000
19688 ca 16478 TPS CA1 19688 -0.361 12.010000
19689 si 16478 TPS Si 19689 1.1 28.085000
19690 ca 16478 TPS CA6 19690 -0.0753 12.010000
19691 ha 16478 TPS HH6 19691 0.1332 1.008000
19692 ca 16478 TPS CA5 19692 -0.1548 12.010000
19693 ha 16478 TPS HA5 19693 0.1282 1.008000
19694 ca 16478 TPS CA4 19694 -0.1028 12.010000
19695 ha 16478 TPS HA4 19695 0.1262 1.008000
19696 ca 16478 TPS CA3 19696 -0.1548 12.010000
19697 ha 16478 TPS HA3 19697 0.1282 1.008000
19698 ha 16479 TPS HA2 19698 0.1332 1.008000
19699 ca 16479 TPS CA2 19699 -0.0753 12.010000
19700 ca 16479 TPS CA1 19700 -0.361 12.010000
19701 si 16479 TPS Si 19701 1.1 28.085000
19702 ca 16479 TPS CA6 19702 -0.0753 12.010000
19703 ha 16479 TPS HH6 19703 0.1332 1.008000
19704 ca 16479 TPS CA5 19704 -0.1548 12.010000
19705 ha 16479 TPS HA5 19705 0.1282 1.008000
19706 ca 16479 TPS CA4 19706 -0.1028 12.010000
19707 ha 16479 TPS HA4 19707 0.1262 1.008000
19708 ca 16479 TPS CA3 19708 -0.1548 12.010000
19709 ha 16479 TPS HA3 19709 0.1282 1.008000
19710 ha 16480 TPS HA2 19710 0.1332 1.008000
19711 ca 16480 TPS CA2 19711 -0.0753 12.010000
19712 ca 16480 TPS CA1 19712 -0.361 12.010000
19713 si 16480 TPS Si 19713 1.1 28.085000
19714 ca 16480 TPS CA6 19714 -0.0753 12.010000
19715 ha 16480 TPS HH6 19715 0.1332 1.008000
19716 ca 16480 TPS CA5 19716 -0.1548 12.010000
19717 ha 16480 TPS HA5 19717 0.1282 1.008000
19718 ca 16480 TPS CA4 19718 -0.1028 12.010000
19719 ha 16480 TPS HA4 19719 0.1262 1.008000
19720 ca 16480 TPS CA3 19720 -0.1548 12.010000
19721 ha 16480 TPS HA3 19721 0.1282 1.008000
19722 ha 16481 TPS HA2 19722 0.1332 1.008000
19723 ca 16481 TPS CA2 19723 -0.0753 12.010000
19724 ca 16481 TPS CA1 19724 -0.361 12.010000
19725 si 16481 TPS Si 19725 1.1 28.085000
19726 ca 16481 TPS CA6 19726 -0.0753 12.010000
19727 ha 16481 TPS HH6 19727 0.1332 1.008000
19728 ca 16481 TPS CA5 19728 -0.1548 12.010000
19729 ha 16481 TPS HA5 19729 0.1282 1.008000
19730 ca 16481 TPS CA4 19730 -0.1028 12.010000
19731 ha 16481 TPS HA4 19731 0.1262 1.008000
19732 ca 16481 TPS CA3 19732 -0.1548 12.010000
19733 ha 16481 TPS HA3 19733 0.1282 1.008000
19734 ha 16482 TPS HA2 19734 0.1332 1.008000
19735 ca 16482 TPS CA2 19735 -0.0753 12.010000
19736 ca 16482 TPS CA1 19736 -0.361 12.010000
19737 si 16482 TPS Si 19737 1.1 28.085000
19738 ca 16482 TPS CA6 19738 -0.0753 12.010000
19739 ha 16482 TPS HH6 19739 0.1332 1.008000
19740 ca 16482 TPS CA5 19740 -0.1548 12.010000
19741 ha 16482 TPS HA5 19741 0.1282 1.008000
19742 ca 16482 TPS CA4 19742 -0.1028 12.010000
19743 ha 16482 TPS HA4 19743 0.1262 1.008000
19744 ca 16482 TPS CA3 19744 -0.1548 12.010000
19745 ha 16482 TPS HA3 19745 0.1282 1.008000
19746 ha 16483 TPS HA2 19746 0.1332 1.008000
19747 ca 16483 TPS CA2 19747 -0.0753 12.010000
19748 ca 16483 TPS CA1 19748 -0.361 12.010000
19749 si 16483 TPS Si 19749 1.1 28.085000
19750 ca 16483 TPS CA6 19750 -0.0753 12.010000
19751 ha 16483 TPS HH6 19751 0.1332 1.008000
19752 ca 16483 TPS CA5 19752 -0.1548 12.010000
19753 ha 16483 TPS HA5 19753 0.1282 1.008000
19754 ca 16483 TPS CA4 19754 -0.1028 12.010000
19755 ha 16483 TPS HA4 19755 0.1262 1.008000
19756 ca 16483 TPS CA3 19756 -0.1548 12.010000
19757 ha 16483 TPS HA3 19757 0.1282 1.008000
19758 ha 16484 TPS HA2 19758 0.1332 1.008000
19759 ca 16484 TPS CA2 19759 -0.0753 12.010000
19760 ca 16484 TPS CA1 19760 -0.361 12.010000
19761 si 16484 TPS Si 19761 1.1 28.085000
19762 ca 16484 TPS CA6 19762 -0.0753 12.010000
19763 ha 16484 TPS HH6 19763 0.1332 1.008000
19764 ca 16484 TPS CA5 19764 -0.1548 12.010000
19765 ha 16484 TPS HA5 19765 0.1282 1.008000
19766 ca 16484 TPS CA4 19766 -0.1028 12.010000
19767 ha 16484 TPS HA4 19767 0.1262 1.008000
19768 ca 16484 TPS CA3 19768 -0.1548 12.010000
19769 ha 16484 TPS HA3 19769 0.1282 1.008000
19770 ha 16485 TPS HA2 19770 0.1332 1.008000
19771 ca 16485 TPS CA2 19771 -0.0753 12.010000
19772 ca 16485 TPS CA1 19772 -0.361 12.010000
19773 si 16485 TPS Si 19773 1.1 28.085000
19774 ca 16485 TPS CA6 19774 -0.0753 12.010000
19775 ha 16485 TPS HH6 19775 0.1332 1.008000
19776 ca 16485 TPS CA5 19776 -0.1548 12.010000
19777 ha 16485 TPS HA5 19777 0.1282 1.008000
19778 ca 16485 TPS CA4 19778 -0.1028 12.010000
19779 ha 16485 TPS HA4 19779 0.1262 1.008000
19780 ca 16485 TPS CA3 19780 -0.1548 12.010000
19781 ha 16485 TPS HA3 19781 0.1282 1.008000
19782 ha 16486 TPS HA2 19782 0.1332 1.008000
19783 ca 16486 TPS CA2 19783 -0.0753 12.010000
19784 ca 16486 TPS CA1 19784 -0.361 12.010000
19785 si 16486 TPS Si 19785 1.1 28.085000
19786 ca 16486 TPS CA6 19786 -0.0753 12.010000
19787 ha 16486 TPS HH6 19787 0.1332 1.008000
19788 ca 16486 TPS CA5 19788 -0.1548 12.010000
19789 ha 16486 TPS HA5 19789 0.1282 1.008000
19790 ca 16486 TPS CA4 19790 -0.1028 12.010000
19791 ha 16486 TPS HA4 19791 0.1262 1.008000
19792 ca 16486 TPS CA3 19792 -0.1548 12.010000
19793 ha 16486 TPS HA3 19793 0.1282 1.008000
19794 ha 16487 TPS HA2 19794 0.1332 1.008000
19795 ca 16487 TPS CA2 19795 -0.0753 12.010000
19796 ca 16487 TPS CA1 19796 -0.361 12.010000
19797 si 16487 TPS Si 19797 1.1 28.085000
19798 ca 16487 TPS CA6 19798 -0.0753 12.010000
19799 ha 16487 TPS HH6 19799 0.1332 1.008000
19800 ca 16487 TPS CA5 19800 -0.1548 12.010000
19801 ha 16487 TPS HA5 19801 0.1282 1.008000
19802 ca 16487 TPS CA4 19802 -0.1028 12.010000
19803 ha 16487 TPS HA4 19803 0.1262 1.008000
19804 ca 16487 TPS CA3 19804 -0.1548 12.010000
19805 ha 16487 TPS HA3 19805 0.1282 1.008000
19806 ha 16488 TPS HA2 19806 0.1332 1.008000
19807 ca 16488 TPS CA2 19807 -0.0753 12.010000
19808 ca 16488 TPS CA1 19808 -0.361 12.010000
19809 si 16488 TPS Si 19809 1.1 28.085000
19810 ca 16488 TPS CA6 19810 -0.0753 12.010000
19811 ha 16488 TPS HH6 19811 0.1332 1.008000
19812 ca 16488 TPS CA5 19812 -0.1548 12.010000
19813 ha 16488 TPS HA5 19813 0.1282 1.008000
19814 ca 16488 TPS CA4 19814 -0.1028 12.010000
19815 ha 16488 TPS HA4 19815 0.1262 1.008000
19816 ca 16488 TPS CA3 19816 -0.1548 12.010000
19817 ha 16488 TPS HA3 19817 0.1282 1.008000
19818 ha 16489 TPS HA2 19818 0.1332 1.008000
19819 ca 16489 TPS CA2 19819 -0.0753 12.010000
19820 ca 16489 TPS CA1 19820 -0.361 12.010000
19821 si 16489 TPS Si 19821 1.1 28.085000
19822 ca 16489 TPS CA6 19822 -0.0753 12.010000
19823 ha 16489 TPS HH6 19823 0.1332 1.008000
19824 ca 16489 TPS CA5 19824 -0.1548 12.010000
19825 ha 16489 TPS HA5 19825 0.1282 1.008000
19826 ca 16489 TPS CA4 19826 -0.1028 12.010000
19827 ha 16489 TPS HA4 19827 0.1262 1.008000
19828 ca 16489 TPS CA3 19828 -0.1548 12.010000
19829 ha 16489 TPS HA3 19829 0.1282 1.008000
19830 ha 16490 TPS HA2 19830 0.1332 1.008000
19831 ca 16490 TPS CA2 19831 -0.0753 12.010000
19832 ca 16490 TPS CA1 19832 -0.361 12.010000
19833 si 16490 TPS Si 19833 1.1 28.085000
19834 ca 16490 TPS CA6 19834 -0.0753 12.010000
19835 ha 16490 TPS HH6 19835 0.1332 1.008000
19836 ca 16490 TPS CA5 19836 -0.1548 12.010000
19837 ha 16490 TPS HA5 19837 0.1282 1.008000
19838 ca 16490 TPS CA4 19838 -0.1028 12.010000
19839 ha 16490 TPS HA4 19839 0.1262 1.008000
19840 ca 16490 TPS CA3 19840 -0.1548 12.010000
19841 ha 16490 TPS HA3 19841 0.1282 1.008000
19842 ha 16491 TPS HA2 19842 0.1332 1.008000
19843 ca 16491 TPS CA2 19843 -0.0753 12.010000
19844 ca 16491 TPS CA1 19844 -0.361 12.010000
19845 si 16491 TPS Si 19845 1.1 28.085000
19846 ca 16491 TPS CA6 19846 -0.0753 12.010000
19847 ha 16491 TPS HH6 19847 0.1332 1.008000
19848 ca 16491 TPS CA5 19848 -0.1548 12.010000
19849 ha 16491 TPS HA5 19849 0.1282 1.008000
19850 ca 16491 TPS CA4 19850 -0.1028 12.010000
19851 ha 16491 TPS HA4 19851 0.1262 1.008000
19852 ca 16491 TPS CA3 19852 -0.1548 12.010000
19853 ha 16491 TPS HA3 19853 0.1282 1.008000
19854 ha 16492 TPS HA2 19854 0.1332 1.008000
19855 ca 16492 TPS CA2 19855 -0.0753 12.010000
19856 ca 16492 TPS CA1 19856 -0.361 12.010000
19857 si 16492 TPS Si 19857 1.1 28.085000
19858 ca 16492 TPS CA6 19858 -0.0753 12.010000
19859 ha 16492 TPS HH6 19859 0.1332 1.008000
19860 ca 16492 TPS CA5 19860 -0.1548 12.010000
19861 ha 16492 TPS HA5 19861 0.1282 1.008000
19862 ca 16492 TPS CA4 19862 -0.1028 12.010000
19863 ha 16492 TPS HA4 19863 0.1262 1.008000
19864 ca 16492 TPS CA3 19864 -0.1548 12.010000
19865 ha 16492 TPS HA3 19865 0.1282 1.008000
19866 ha 16493 TPS HA2 19866 0.1332 1.008000
19867 ca 16493 TPS CA2 19867 -0.0753 12.010000
19868 ca 16493 TPS CA1 19868 -0.361 12.010000
19869 si 16493 TPS Si 19869 1.1 28.085000
19870 ca 16493 TPS CA6 19870 -0.0753 12.010000
19871 ha 16493 TPS HH6 19871 0.1332 1.008000
19872 ca 16493 TPS CA5 19872 -0.1548 12.010000
19873 ha 16493 TPS HA5 19873 0.1282 1.008000
19874 ca 16493 TPS CA4 19874 -0.1028 12.010000
19875 ha 16493 TPS HA4 19875 0.1262 1.008000
19876 ca 16493 TPS CA3 19876 -0.1548 12.010000
19877 ha 16493 TPS HA3 19877 0.1282 1.008000
19878 ha 16494 TPS HA2 19878 0.1332 1.008000
19879 ca 16494 TPS CA2 19879 -0.0753 12.010000
19880 ca 16494 TPS CA1 19880 -0.361 12.010000
19881 si 16494 TPS Si 19881 1.1 28.085000
19882 ca 16494 TPS CA6 19882 -0.0753 12.010000
19883 ha 16494 TPS HH6 19883 0.1332 1.008000
19884 ca 16494 TPS CA5 19884 -0.1548 12.010000
19885 ha 16494 TPS HA5 19885 0.1282 1.008000
19886 ca 16494 TPS CA4 19886 -0.1028 12.010000
19887 ha 16494 TPS HA4 19887 0.1262 1.008000
19888 ca 16494 TPS CA3 19888 -0.1548 12.010000
19889 ha 16494 TPS HA3 19889 0.1282 1.008000
19890 ha 16495 TPS HA2 19890 0.1332 1.008000
19891 ca 16495 TPS CA2 19891 -0.0753 12.010000
19892 ca 16495 TPS CA1 19892 -0.361 12.010000
19893 si 16495 TPS Si 19893 1.1 28.085000
19894 ca 16495 TPS CA6 19894 -0.0753 12.010000
19895 ha 16495 TPS HH6 19895 0.1332 1.008000
19896 ca 16495 TPS CA5 19896 -0.1548 12.010000
19897 ha 16495 TPS HA5 19897 0.1282 1.008000
19898 ca 16495 TPS CA4 19898 -0.1028 12.010000
19899 ha 16495 TPS HA4 19899 0.1262 1.008000
19900 ca 16495 TPS CA3 19900 -0.1548 12.010000
19901 ha 16495 TPS HA3 19901 0.1282 1.008000
19902 ha 16496 TPS HA2 19902 0.1332 1.008000
19903 ca 16496 TPS CA2 19903 -0.0753 12.010000
19904 ca 16496 TPS CA1 19904 -0.361 12.010000
19905 si 16496 TPS Si 19905 1.1 28.085000
19906 ca 16496 TPS CA6 19906 -0.0753 12.010000
19907 ha 16496 TPS HH6 19907 0.1332 1.008000
19908 ca 16496 TPS CA5 19908 -0.1548 12.010000
19909 ha 16496 TPS HA5 19909 0.1282 1.008000
19910 ca 16496 TPS CA4 19910 -0.1028 12.010000
19911 ha 16496 TPS HA4 19911 0.1262 1.008000
19912 ca 16496 TPS CA3 19912 -0.1548 12.010000
19913 ha 16496 TPS HA3 19913 0.1282 1.008000
19914 ha 16497 TPS HA2 19914 0.1332 1.008000
19915 ca 16497 TPS CA2 19915 -0.0753 12.010000
19916 ca 16497 TPS CA1 19916 -0.361 12.010000
19917 si 16497 TPS Si 19917 1.1 28.085000
19918 ca 16497 TPS CA6 19918 -0.0753 12.010000
19919 ha 16497 TPS HH6 19919 0.1332 1.008000
19920 ca 16497 TPS CA5 19920 -0.1548 12.010000
19921 ha 16497 TPS HA5 19921 0.1282 1.008000
19922 ca 16497 TPS CA4 19922 -0.1028 12.010000
19923 ha 16497 TPS HA4 19923 0.1262 1.008000
19924 ca 16497 TPS CA3 19924 -0.1548 12.010000
19925 ha 16497 TPS HA3 19925 0.1282 1.008000
19926 ha 16498 TPS HA2 19926 0.1332 1.008000
19927 ca 16498 TPS CA2 19927 -0.0753 12.010000
19928 ca 16498 TPS CA1 19928 -0.361 12.010000
19929 si 16498 TPS Si 19929 1.1 28.085000
19930 ca 16498 TPS CA6 19930 -0.0753 12.010000
19931 ha 16498 TPS HH6 19931 0.1332 1.008000
19932 ca 16498 TPS CA5 19932 -0.1548 12.010000
19933 ha 16498 TPS HA5 19933 0.1282 1.008000
19934 ca 16498 TPS CA4 19934 -0.1028 12.010000
19935 ha 16498 TPS HA4 19935 0.1262 1.008000
19936 ca 16498 TPS CA3 19936 -0.1548 12.010000
19937 ha 16498 TPS HA3 19937 0.1282 1.008000
19938 ha 16499 TPS HA2 19938 0.1332 1.008000
19939 ca 16499 TPS CA2 19939 -0.0753 12.010000
19940 ca 16499 TPS CA1 19940 -0.361 12.010000
19941 si 16499 TPS Si 19941 1.1 28.085000
19942 ca 16499 TPS CA6 19942 -0.0753 12.010000
19943 ha 16499 TPS HH6 19943 0.1332 1.008000
19944 ca 16499 TPS CA5 19944 -0.1548 12.010000
19945 ha 16499 TPS HA5 19945 0.1282 1.008000
19946 ca 16499 TPS CA4 19946 -0.1028 12.010000
19947 ha 16499 TPS HA4 19947 0.1262 1.008000
19948 ca 16499 TPS CA3 19948 -0.1548 12.010000
19949 ha 16499 TPS HA3 19949 0.1282 1.008000
19950 ha 16500 TPS HA2 19950 0.1332 1.008000
19951 ca 16500 TPS CA2 19951 -0.0753 12.010000
19952 ca 16500 TPS CA1 19952 -0.361 12.010000
19953 si 16500 TPS Si 19953 1.1 28.085000
19954 ca 16500 TPS CA6 19954 -0.0753 12.010000
19955 ha 16500 TPS HH6 19955 0.1332 1.008000
19956 ca 16500 TPS CA5 19956 -0.1548 12.010000
19957 ha 16500 TPS HA5 19957 0.1282 1.008000
19958 ca 16500 TPS CA4 19958 -0.1028 12.010000
19959 ha 16500 TPS HA4 19959 0.1262 1.008000
19960 ca 16500 TPS CA3 19960 -0.1548 12.010000
19961 ha 16500 TPS HA3 19961 0.1282 1.008000
19962 ha 16501 TPS HA2 19962 0.1332 1.008000
19963 ca 16501 TPS CA2 19963 -0.0753 12.010000
19964 ca 16501 TPS CA1 19964 -0.361 12.010000
19965 si 16501 TPS Si 19965 1.1 28.085000
19966 ca 16501 TPS CA6 19966 -0.0753 12.010000
19967 ha 16501 TPS HH6 19967 0.1332 1.008000
19968 ca 16501 TPS CA5 19968 -0.1548 12.010000
19969 ha 16501 TPS HA5 19969 0.1282 1.008000
19970 ca 16501 TPS CA4 19970 -0.1028 12.010000
19971 ha 16501 TPS HA4 19971 0.1262 1.008000
19972 ca 16501 TPS CA3 19972 -0.1548 12.010000
19973 ha 16501 TPS HA3 19973 0.1282 1.008000
19974 ha 16502 TPS HA2 19974 0.1332 1.008000
19975 ca 16502 TPS CA2 19975 -0.0753 12.010000
19976 ca 16502 TPS CA1 19976 -0.361 12.010000
19977 si 16502 TPS Si 19977 1.1 28.085000
19978 ca 16502 TPS CA6 19978 -0.0753 12.010000
19979 ha 16502 TPS HH6 19979 0.1332 1.008000
19980 ca 16502 TPS CA5 19980 -0.1548 12.010000
19981 ha 16502 TPS HA5 19981 0.1282 1.008000
19982 ca 16502 TPS CA4 19982 -0.1028 12.010000
19983 ha 16502 TPS HA4 19983 0.1262 1.008000
19984 ca 16502 TPS CA3 19984 -0.1548 12.010000
19985 ha 16502 TPS HA3 19985 0.1282 1.008000
19986 ha 16503 TPS HA2 19986 0.1332 1.008000
19987 ca 16503 TPS CA2 19987 -0.0753 12.010000
19988 ca 16503 TPS CA1 19988 -0.361 12.010000
19989 si 16503 TPS Si 19989 1.1 28.085000
19990 ca 16503 TPS CA6 19990 -0.0753 12.010000
19991 ha 16503 TPS HH6 19991 0.1332 1.008000
19992 ca 16503 TPS CA5 19992 -0.1548 12.010000
19993 ha 16503 TPS HA5 19993 0.1282 1.008000
19994 ca 16503 TPS CA4 19994 -0.1028 12.010000
19995 ha 16503 TPS HA4 19995 0.1262 1.008000
19996 ca 16503 TPS CA3 19996 -0.1548 12.010000
19997 ha 16503 TPS HA3 19997 0.1282 1.008000
19998 ha 16504 TPS HA2 19998 0.1332 1.008000
19999 ca 16504 TPS CA2 19999 -0.0753 12.010000
20000 ca 16504 TPS CA1 20000 -0.361 12.010000
20001 si 16504 TPS Si 20001 1.1 28.085000
20002 ca 16504 TPS CA6 20002 -0.0753 12.010000
20003 ha 16504 TPS HH6 20003 0.1332 1.008000
20004 ca 16504 TPS CA5 20004 -0.1548 12.010000
20005 ha 16504 TPS HA5 20005 0.1282 1.008000
20006 ca 16504 TPS CA4 20006 -0.1028 12.010000
20007 ha 16504 TPS HA4 20007 0.1262 1.008000
20008 ca 16504 TPS CA3 20008 -0.1548 12.010000
20009 ha 16504 TPS HA3 20009 0.1282 1.008000
20010 ha 16505 TPS HA2 20010 0.1332 1.008000
20011 ca 16505 TPS CA2 20011 -0.0753 12.010000
20012 ca 16505 TPS CA1 20012 -0.361 12.010000
20013 si 16505 TPS Si 20013 1.1 28.085000
20014 ca 16505 TPS CA6 20014 -0.0753 12.010000
20015 ha 16505 TPS HH6 20015 0.1332 1.008000
20016 ca 16505 TPS CA5 20016 -0.1548 12.010000
20017 ha 16505 TPS HA5 20017 0.1282 1.008000
20018 ca 16505 TPS CA4 20018 -0.1028 12.010000
20019 ha 16505 TPS HA4 20019 0.1262 1.008000
20020 ca 16505 TPS CA3 20020 -0.1548 12.010000
20021 ha 16505 TPS HA3 20021 0.1282 1.008000
20022 ha 16506 TPS HA2 20022 0.1332 1.008000
20023 ca 16506 TPS CA2 20023 -0.0753 12.010000
20024 ca 16506 TPS CA1 20024 -0.361 12.010000
20025 si 16506 TPS Si 20025 1.1 28.085000
20026 ca 16506 TPS CA6 20026 -0.0753 12.010000
20027 ha 16506 TPS HH6 20027 0.1332 1.008000
20028 ca 16506 TPS CA5 20028 -0.1548 12.010000
20029 ha 16506 TPS HA5 20029 0.1282 1.008000
20030 ca 16506 TPS CA4 20030 -0.1028 12.010000
20031 ha 16506 TPS HA4 20031 0.1262 1.008000
20032 ca 16506 TPS CA3 20032 -0.1548 12.010000
20033 ha 16506 TPS HA3 20033 0.1282 1.008000
20034 ha 16507 TPS HA2 20034 0.1332 1.008000
20035 ca 16507 TPS CA2 20035 -0.0753 12.010000
20036 ca 16507 TPS CA1 20036 -0.361 12.010000
20037 si 16507 TPS Si 20037 1.1 28.085000
20038 ca 16507 TPS CA6 20038 -0.0753 12.010000
20039 ha 16507 TPS HH6 20039 0.1332 1.008000
20040 ca 16507 TPS CA5 20040 -0.1548 12.010000
20041 ha 16507 TPS HA5 20041 0.1282 1.008000
20042 ca 16507 TPS CA4 20042 -0.1028 12.010000
20043 ha 16507 TPS HA4 20043 0.1262 1.008000
20044 ca 16507 TPS CA3 20044 -0.1548 12.010000
20045 ha 16507 TPS HA3 20045 0.1282 1.008000
20046 ha 16508 TPS HA2 20046 0.1332 1.008000
20047 ca 16508 TPS CA2 20047 -0.0753 12.010000
20048 ca 16508 TPS CA1 20048 -0.361 12.010000
20049 si 16508 TPS Si 20049 1.1 28.085000
20050 ca 16508 TPS CA6 20050 -0.0753 12.010000
20051 ha 16508 TPS HH6 20051 0.1332 1.008000
20052 ca 16508 TPS CA5 20052 -0.1548 12.010000
20053 ha 16508 TPS HA5 20053 0.1282 1.008000
20054 ca 16508 TPS CA4 20054 -0.1028 12.010000
20055 ha 16508 TPS HA4 20055 0.1262 1.008000
20056 ca 16508 TPS CA3 20056 -0.1548 12.010000
20057 ha 16508 TPS HA3 20057 0.1282 1.008000
20058 ha 16509 TPS HA2 20058 0.1332 1.008000
20059 ca 16509 TPS CA2 20059 -0.0753 12.010000
20060 ca 16509 TPS CA1 20060 -0.361 12.010000
20061 si 16509 TPS Si 20061 1.1 28.085000
20062 ca 16509 TPS CA6 20062 -0.0753 12.010000
20063 ha 16509 TPS HH6 20063 0.1332 1.008000
20064 ca 16509 TPS CA5 20064 -0.1548 12.010000
20065 ha 16509 TPS HA5 20065 0.1282 1.008000
20066 ca 16509 TPS CA4 20066 -0.1028 12.010000
20067 ha 16509 TPS HA4 20067 0.1262 1.008000
20068 ca 16509 TPS CA3 20068 -0.1548 12.010000
20069 ha 16509 TPS HA3 20069 0.1282 1.008000
20070 ha 16510 TPS HA2 20070 0.1332 1.008000
20071 ca 16510 TPS CA2 20071 -0.0753 12.010000
20072 ca 16510 TPS CA1 20072 -0.361 12.010000
20073 si 16510 TPS Si 20073 1.1 28.085000
20074 ca 16510 TPS CA6 20074 -0.0753 12.010000
20075 ha 16510 TPS HH6 20075 0.1332 1.008000
20076 ca 16510 TPS CA5 20076 -0.1548 12.010000
20077 ha 16510 TPS HA5 20077 0.1282 1.008000
20078 ca 16510 TPS CA4 20078 -0.1028 12.010000
20079 ha 16510 TPS HA4 20079 0.1262 1.008000
20080 ca 16510 TPS CA3 20080 -0.1548 12.010000
20081 ha 16510 TPS HA3 20081 0.1282 1.008000
20082 ha 16511 TPS HA2 20082 0.1332 1.008000
20083 ca 16511 TPS CA2 20083 -0.0753 12.010000
20084 ca 16511 TPS CA1 20084 -0.361 12.010000
20085 si 16511 TPS Si 20085 1.1 28.085000
20086 ca 16511 TPS CA6 20086 -0.0753 12.010000
20087 ha 16511 TPS HH6 20087 0.1332 1.008000
20088 ca 16511 TPS CA5 20088 -0.1548 12.010000
20089 ha 16511 TPS HA5 20089 0.1282 1.008000
20090 ca 16511 TPS CA4 20090 -0.1028 12.010000
20091 ha 16511 TPS HA4 20091 0.1262 1.008000
20092 ca 16511 TPS CA3 20092 -0.1548 12.010000
20093 ha 16511 TPS HA3 20093 0.1282 1.008000
20094 ha 16512 TPS HA2 20094 0.1332 1.008000
20095 ca 16512 TPS CA2 20095 -0.0753 12.010000
20096 ca 16512 TPS CA1 20096 -0.361 12.010000
20097 si 16512 TPS Si 20097 1.1 28.085000
20098 ca 16512 TPS CA6 20098 -0.0753 12.010000
20099 ha 16512 TPS HH6 20099 0.1332 1.008000
20100 ca 16512 TPS CA5 20100 -0.1548 12.010000
20101 ha 16512 TPS HA5 20101 0.1282 1.008000
20102 ca 16512 TPS CA4 20102 -0.1028 12.010000
20103 ha 16512 TPS HA4 20103 0.1262 1.008000
20104 ca 16512 TPS CA3 20104 -0.1548 12.010000
20105 ha 16512 TPS HA3 20105 0.1282 1.008000
20106 ha 16513 TPS HA2 20106 0.1332 1.008000
20107 ca 16513 TPS CA2 20107 -0.0753 12.010000
20108 ca 16513 TPS CA1 20108 -0.361 12.010000
20109 si 16513 TPS Si 20109 1.1 28.085000
20110 ca 16513 TPS CA6 20110 -0.0753 12.010000
20111 ha 16513 TPS HH6 20111 0.1332 1.008000
20112 ca 16513 TPS CA5 20112 -0.1548 12.010000
20113 ha 16513 TPS HA5 20113 0.1282 1.008000
20114 ca 16513 TPS CA4 20114 -0.1028 12.010000
20115 ha 16513 TPS HA4 20115 0.1262 1.008000
20116 ca 16513 TPS CA3 20116 -0.1548 12.010000
20117 ha 16513 TPS HA3 20117 0.1282 1.008000
20118 ha 16514 TPS HA2 20118 0.1332 1.008000
20119 ca 16514 TPS CA2 20119 -0.0753 12.010000
20120 ca 16514 TPS CA1 20120 -0.361 12.010000
20121 si 16514 TPS Si 20121 1.1 28.085000
20122 ca 16514 TPS CA6 20122 -0.0753 12.010000
20123 ha 16514 TPS HH6 20123 0.1332 1.008000
20124 ca 16514 TPS CA5 20124 -0.1548 12.010000
20125 ha 16514 TPS HA5 20125 0.1282 1.008000
20126 ca 16514 TPS CA4 20126 -0.1028 12.010000
20127 ha 16514 TPS HA4 20127 0.1262 1.008000
20128 ca 16514 TPS CA3 20128 -0.1548 12.010000
20129 ha 16514 TPS HA3 20129 0.1282 1.008000
20130 ha 16515 TPS HA2 20130 0.1332 1.008000
20131 ca 16515 TPS CA2 20131 -0.0753 12.010000
20132 ca 16515 TPS CA1 20132 -0.361 12.010000
20133 si 16515 TPS Si 20133 1.1 28.085000
20134 ca 16515 TPS CA6 20134 -0.0753 12.010000
20135 ha 16515 TPS HH6 20135 0.1332 1.008000
20136 ca 16515 TPS CA5 20136 -0.1548 12.010000
20137 ha 16515 TPS HA5 20137 0.1282 1.008000
20138 ca 16515 TPS CA4 20138 -0.1028 12.010000
20139 ha 16515 TPS HA4 20139 0.1262 1.008000
20140 ca 16515 TPS CA3 20140 -0.1548 12.010000
20141 ha 16515 TPS HA3 20141 0.1282 1.008000
20142 ha 16516 TPS HA2 20142 0.1332 1.008000
20143 ca 16516 TPS CA2 20143 -0.0753 12.010000
20144 ca 16516 TPS CA1 20144 -0.361 12.010000
20145 si 16516 TPS Si 20145 1.1 28.085000
20146 ca 16516 TPS CA6 20146 -0.0753 12.010000
20147 ha 16516 TPS HH6 20147 0.1332 1.008000
20148 ca 16516 TPS CA5 20148 -0.1548 12.010000
20149 ha 16516 TPS HA5 20149 0.1282 1.008000
20150 ca 16516 TPS CA4 20150 -0.1028 12.010000
20151 ha 16516 TPS HA4 20151 0.1262 1.008000
20152 ca 16516 TPS CA3 20152 -0.1548 12.010000
20153 ha 16516 TPS HA3 20153 0.1282 1.008000
20154 ha 16517 TPS HA2 20154 0.1332 1.008000
20155 ca 16517 TPS CA2 20155 -0.0753 12.010000
20156 ca 16517 TPS CA1 20156 -0.361 12.010000
20157 si 16517 TPS Si 20157 1.1 28.085000
20158 ca 16517 TPS CA6 20158 -0.0753 12.010000
20159 ha 16517 TPS HH6 20159 0.1332 1.008000
20160 ca 16517 TPS CA5 20160 -0.1548 12.010000
20161 ha 16517 TPS HA5 20161 0.1282 1.008000
20162 ca 16517 TPS CA4 20162 -0.1028 12.010000
20163 ha 16517 TPS HA4 20163 0.1262 1.008000
20164 ca 16517 TPS CA3 20164 -0.1548 12.010000
20165 ha 16517 TPS HA3 20165 0.1282 1.008000
20166 ha 16518 TPS HA2 20166 0.1332 1.008000
20167 ca 16518 TPS CA2 20167 -0.0753 12.010000
20168 ca 16518 TPS CA1 20168 -0.361 12.010000
20169 si 16518 TPS Si 20169 1.1 28.085000
20170 ca 16518 TPS CA6 20170 -0.0753 12.010000
20171 ha 16518 TPS HH6 20171 0.1332 1.008000
20172 ca 16518 TPS CA5 20172 -0.1548 12.010000
20173 ha 16518 TPS HA5 20173 0.1282 1.008000
20174 ca 16518 TPS CA4 20174 -0.1028 12.010000
20175 ha 16518 TPS HA4 20175 0.1262 1.008000
20176 ca 16518 TPS CA3 20176 -0.1548 12.010000
20177 ha 16518 TPS HA3 20177 0.1282 1.008000
20178 ha 16519 TPS HA2 20178 0.1332 1.008000
20179 ca 16519 TPS CA2 20179 -0.0753 12.010000
20180 ca 16519 TPS CA1 20180 -0.361 12.010000
20181 si 16519 TPS Si 20181 1.1 28.085000
20182 ca 16519 TPS CA6 20182 -0.0753 12.010000
20183 ha 16519 TPS HH6 20183 0.1332 1.008000
20184 ca 16519 TPS CA5 20184 -0.1548 12.010000
20185 ha 16519 TPS HA5 20185 0.1282 1.008000
20186 ca 16519 TPS CA4 20186 -0.1028 12.010000
20187 ha 16519 TPS HA4 20187 0.1262 1.008000
20188 ca 16519 TPS CA3 20188 -0.1548 12.010000
20189 ha 16519 TPS HA3 20189 0.1282 1.008000
20190 ha 16520 TPS HA2 20190 0.1332 1.008000
20191 ca 16520 TPS CA2 20191 -0.0753 12.010000
20192 ca 16520 TPS CA1 20192 -0.361 12.010000
20193 si 16520 TPS Si 20193 1.1 28.085000
20194 ca 16520 TPS CA6 20194 -0.0753 12.010000
20195 ha 16520 TPS HH6 20195 0.1332 1.008000
20196 ca 16520 TPS CA5 20196 -0.1548 12.010000
20197 ha 16520 TPS HA5 20197 0.1282 1.008000
20198 ca 16520 TPS CA4 20198 -0.1028 12.010000
20199 ha 16520 TPS HA4 20199 0.1262 1.008000
20200 ca 16520 TPS CA3 20200 -0.1548 12.010000
20201 ha 16520 TPS HA3 20201 0.1282 1.008000
20202 ha 16521 TPS HA2 20202 0.1332 1.008000
20203 ca 16521 TPS CA2 20203 -0.0753 12.010000
20204 ca 16521 TPS CA1 20204 -0.361 12.010000
20205 si 16521 TPS Si 20205 1.1 28.085000
20206 ca 16521 TPS CA6 20206 -0.0753 12.010000
20207 ha 16521 TPS HH6 20207 0.1332 1.008000
20208 ca 16521 TPS CA5 20208 -0.1548 12.010000
20209 ha 16521 TPS HA5 20209 0.1282 1.008000
20210 ca 16521 TPS CA4 20210 -0.1028 12.010000
20211 ha 16521 TPS HA4 20211 0.1262 1.008000
20212 ca 16521 TPS CA3 20212 -0.1548 12.010000
20213 ha 16521 TPS HA3 20213 0.1282 1.008000
20214 ha 16522 TPS HA2 20214 0.1332 1.008000
20215 ca 16522 TPS CA2 20215 -0.0753 12.010000
20216 ca 16522 TPS CA1 20216 -0.361 12.010000
20217 si 16522 TPS Si 20217 1.1 28.085000
20218 ca 16522 TPS CA6 20218 -0.0753 12.010000
20219 ha 16522 TPS HH6 20219 0.1332 1.008000
20220 ca 16522 TPS CA5 20220 -0.1548 12.010000
20221 ha 16522 TPS HA5 20221 0.1282 1.008000
20222 ca 16522 TPS CA4 20222 -0.1028 12.010000
20223 ha 16522 TPS HA4 20223 0.1262 1.008000
20224 ca 16522 TPS CA3 20224 -0.1548 12.010000
20225 ha 16522 TPS HA3 20225 0.1282 1.008000
20226 ha 16523 TPS HA2 20226 0.1332 1.008000
20227 ca 16523 TPS CA2 20227 -0.0753 12.010000
20228 ca 16523 TPS CA1 20228 -0.361 12.010000
20229 si 16523 TPS Si 20229 1.1 28.085000
20230 ca 16523 TPS CA6 20230 -0.0753 12.010000
20231 ha 16523 TPS HH6 20231 0.1332 1.008000
20232 ca 16523 TPS CA5 20232 -0.1548 12.010000
20233 ha 16523 TPS HA5 20233 0.1282 1.008000
20234 ca 16523 TPS CA4 20234 -0.1028 12.010000
20235 ha 16523 TPS HA4 20235 0.1262 1.008000
20236 ca 16523 TPS CA3 20236 -0.1548 12.010000
20237 ha 16523 TPS HA3 20237 0.1282 1.008000
20238 ha 16524 TPS HA2 20238 0.1332 1.008000
20239 ca 16524 TPS CA2 20239 -0.0753 12.010000
20240 ca 16524 TPS CA1 20240 -0.361 12.010000
20241 si 16524 TPS Si 20241 1.1 28.085000
20242 ca 16524 TPS CA6 20242 -0.0753 12.010000
20243 ha 16524 TPS HH6 20243 0.1332 1.008000
20244 ca 16524 TPS CA5 20244 -0.1548 12.010000
20245 ha 16524 TPS HA5 20245 0.1282 1.008000
20246 ca 16524 TPS CA4 20246 -0.1028 12.010000
20247 ha 16524 TPS HA4 20247 0.1262 1.008000
20248 ca 16524 TPS CA3 20248 -0.1548 12.010000
20249 ha 16524 TPS HA3 20249 0.1282 1.008000
20250 ha 16525 TPS HA2 20250 0.1332 1.008000
20251 ca 16525 TPS CA2 20251 -0.0753 12.010000
20252 ca 16525 TPS CA1 20252 -0.361 12.010000
20253 si 16525 TPS Si 20253 1.1 28.085000
20254 ca 16525 TPS CA6 20254 -0.0753 12.010000
20255 ha 16525 TPS HH6 20255 0.1332 1.008000
20256 ca 16525 TPS CA5 20256 -0.1548 12.010000
20257 ha 16525 TPS HA5 20257 0.1282 1.008000
20258 ca 16525 TPS CA4 20258 -0.1028 12.010000
20259 ha 16525 TPS HA4 20259 0.1262 1.008000
20260 ca 16525 TPS CA3 20260 -0.1548 12.010000
20261 ha 16525 TPS HA3 20261 0.1282 1.008000
20262 ha 16526 TPS HA2 20262 0.1332 1.008000
20263 ca 16526 TPS CA2 20263 -0.0753 12.010000
20264 ca 16526 TPS CA1 20264 -0.361 12.010000
20265 si 16526 TPS Si 20265 1.1 28.085000
20266 ca 16526 TPS CA6 20266 -0.0753 12.010000
20267 ha 16526 TPS HH6 20267 0.1332 1.008000
20268 ca 16526 TPS CA5 20268 -0.1548 12.010000
20269 ha 16526 TPS HA5 20269 0.1282 1.008000
20270 ca 16526 TPS CA4 20270 -0.1028 12.010000
20271 ha 16526 TPS HA4 20271 0.1262 1.008000
20272 ca 16526 TPS CA3 20272 -0.1548 12.010000
20273 ha 16526 TPS HA3 20273 0.1282 1.008000
20274 ha 16527 TPS HA2 20274 0.1332 1.008000
20275 ca 16527 TPS CA2 20275 -0.0753 12.010000
20276 ca 16527 TPS CA1 20276 -0.361 12.010000
20277 si 16527 TPS Si 20277 1.1 28.085000
20278 ca 16527 TPS CA6 20278 -0.0753 12.010000
20279 ha 16527 TPS HH6 20279 0.1332 1.008000
20280 ca 16527 TPS CA5 20280 -0.1548 12.010000
20281 ha 16527 TPS HA5 20281 0.1282 1.008000
20282 ca 16527 TPS CA4 20282 -0.1028 12.010000
20283 ha 16527 TPS HA4 20283 0.1262 1.008000
20284 ca 16527 TPS CA3 20284 -0.1548 12.010000
20285 ha 16527 TPS HA3 20285 0.1282 1.008000
20286 ha 16528 TPS HA2 20286 0.1332 1.008000
20287 ca 16528 TPS CA2 20287 -0.0753 12.010000
20288 ca 16528 TPS CA1 20288 -0.361 12.010000
20289 si 16528 TPS Si 20289 1.1 28.085000
20290 ca 16528 TPS CA6 20290 -0.0753 12.010000
20291 ha 16528 TPS HH6 20291 0.1332 1.008000
20292 ca 16528 TPS CA5 20292 -0.1548 12.010000
20293 ha 16528 TPS HA5 20293 0.1282 1.008000
20294 ca 16528 TPS CA4 20294 -0.1028 12.010000
20295 ha 16528 TPS HA4 20295 0.1262 1.008000
20296 ca 16528 TPS CA3 20296 -0.1548 12.010000
20297 ha 16528 TPS HA3 20297 0.1282 1.008000
20298 ha 16529 TPS HA2 20298 0.1332 1.008000
20299 ca 16529 TPS CA2 20299 -0.0753 12.010000
20300 ca 16529 TPS CA1 20300 -0.361 12.010000
20301 si 16529 TPS Si 20301 1.1 28.085000
20302 ca 16529 TPS CA6 20302 -0.0753 12.010000
20303 ha 16529 TPS HH6 20303 0.1332 1.008000
20304 ca 16529 TPS CA5 20304 -0.1548 12.010000
20305 ha 16529 TPS HA5 20305 0.1282 1.008000
20306 ca 16529 TPS CA4 20306 -0.1028 12.010000
20307 ha 16529 TPS HA4 20307 0.1262 1.008000
20308 ca 16529 TPS CA3 20308 -0.1548 12.010000
20309 ha 16529 TPS HA3 20309 0.1282 1.008000
20310 ha 16530 TPS HA2 20310 0.1332 1.008000
20311 ca 16530 TPS CA2 20311 -0.0753 12.010000
20312 ca 16530 TPS CA1 20312 -0.361 12.010000
20313 si 16530 TPS Si 20313 1.1 28.085000
20314 ca 16530 TPS CA6 20314 -0.0753 12.010000
20315 ha 16530 TPS HH6 20315 0.1332 1.008000
20316 ca 16530 TPS CA5 20316 -0.1548 12.010000
20317 ha 16530 TPS HA5 20317 0.1282 1.008000
20318 ca 16530 TPS CA4 20318 -0.1028 12.010000
20319 ha 16530 TPS HA4 20319 0.1262 1.008000
20320 ca 16530 TPS CA3 20320 -0.1548 12.010000
20321 ha 16530 TPS HA3 20321 0.1282 1.008000
20322 ha 16531 TPS HA2 20322 0.1332 1.008000
20323 ca 16531 TPS CA2 20323 -0.0753 12.010000
20324 ca 16531 TPS CA1 20324 -0.361 12.010000
20325 si 16531 TPS Si 20325 1.1 28.085000
20326 ca 16531 TPS CA6 20326 -0.0753 12.010000
20327 ha 16531 TPS HH6 20327 0.1332 1.008000
20328 ca 16531 TPS CA5 20328 -0.1548 12.010000
20329 ha 16531 TPS HA5 20329 0.1282 1.008000
20330 ca 16531 TPS CA4 20330 -0.1028 12.010000
20331 ha 16531 TPS HA4 20331 0.1262 1.008000
20332 ca 16531 TPS CA3 20332 -0.1548 12.010000
20333 ha 16531 TPS HA3 20333 0.1282 1.008000
20334 ha 16532 TPS HA2 20334 0.1332 1.008000
20335 ca 16532 TPS CA2 20335 -0.0753 12.010000
20336 ca 16532 TPS CA1 20336 -0.361 12.010000
20337 si 16532 TPS Si 20337 1.1 28.085000
20338 ca 16532 TPS CA6 20338 -0.0753 12.010000
20339 ha 16532 TPS HH6 20339 0.1332 1.008000
20340 ca 16532 TPS CA5 20340 -0.1548 12.010000
20341 ha 16532 TPS HA5 20341 0.1282 1.008000
20342 ca 16532 TPS CA4 20342 -0.1028 12.010000
20343 ha 16532 TPS HA4 20343 0.1262 1.008000
20344 ca 16532 TPS CA3 20344 -0.1548 12.010000
20345 ha 16532 TPS HA3 20345 0.1282 1.008000
20346 ha 16533 TPS HA2 20346 0.1332 1.008000
20347 ca 16533 TPS CA2 20347 -0.0753 12.010000
20348 ca 16533 TPS CA1 20348 -0.361 12.010000
20349 si 16533 TPS Si 20349 1.1 28.085000
20350 ca 16533 TPS CA6 20350 -0.0753 12.010000
20351 ha 16533 TPS HH6 20351 0.1332 1.008000
20352 ca 16533 TPS CA5 20352 -0.1548 12.010000
20353 ha 16533 TPS HA5 20353 0.1282 1.008000
20354 ca 16533 TPS CA4 20354 -0.1028 12.010000
20355 ha 16533 TPS HA4 20355 0.1262 1.008000
20356 ca 16533 TPS CA3 20356 -0.1548 12.010000
20357 ha 16533 TPS HA3 20357 0.1282 1.008000
20358 ha 16534 TPS HA2 20358 0.1332 1.008000
20359 ca 16534 TPS CA2 20359 -0.0753 12.010000
20360 ca 16534 TPS CA1 20360 -0.361 12.010000
20361 si 16534 TPS Si 20361 1.1 28.085000
20362 ca 16534 TPS CA6 20362 -0.0753 12.010000
20363 ha 16534 TPS HH6 20363 0.1332 1.008000
20364 ca 16534 TPS CA5 20364 -0.1548 12.010000
20365 ha 16534 TPS HA5 20365 0.1282 1.008000
20366 ca 16534 TPS CA4 20366 -0.1028 12.010000
20367 ha 16534 TPS HA4 20367 0.1262 1.008000
20368 ca 16534 TPS CA3 20368 -0.1548 12.010000
20369 ha 16534 TPS HA3 20369 0.1282 1.008000
20370 ha 16535 TPS HA2 20370 0.1332 1.008000
20371 ca 16535 TPS CA2 20371 -0.0753 12.010000
20372 ca 16535 TPS CA1 20372 -0.361 12.010000
20373 si 16535 TPS Si 20373 1.1 28.085000
20374 ca 16535 TPS CA6 20374 -0.0753 12.010000
20375 ha 16535 TPS HH6 20375 0.1332 1.008000
20376 ca 16535 TPS CA5 20376 -0.1548 12.010000
20377 ha 16535 TPS HA5 20377 0.1282 1.008000
20378 ca 16535 TPS CA4 20378 -0.1028 12.010000
20379 ha 16535 TPS HA4 20379 0.1262 1.008000
20380 ca 16535 TPS CA3 20380 -0.1548 12.010000
20381 ha 16535 TPS HA3 20381 0.1282 1.008000
20382 ha 16536 TPS HA2 20382 0.1332 1.008000
20383 ca 16536 TPS CA2 20383 -0.0753 12.010000
20384 ca 16536 TPS CA1 20384 -0.361 12.010000
20385 si 16536 TPS Si 20385 1.1 28.085000
20386 ca 16536 TPS CA6 20386 -0.0753 12.010000
20387 ha 16536 TPS HH6 20387 0.1332 1.008000
20388 ca 16536 TPS CA5 20388 -0.1548 12.010000
20389 ha 16536 TPS HA5 20389 0.1282 1.008000
20390 ca 16536 TPS CA4 20390 -0.1028 12.010000
20391 ha 16536 TPS HA4 20391 0.1262 1.008000
20392 ca 16536 TPS CA3 20392 -0.1548 12.010000
20393 ha 16536 TPS HA3 20393 0.1282 1.008000
20394 ha 16537 TPS HA2 20394 0.1332 1.008000
20395 ca 16537 TPS CA2 20395 -0.0753 12.010000
20396 ca 16537 TPS CA1 20396 -0.361 12.010000
20397 si 16537 TPS Si 20397 1.1 28.085000
20398 ca 16537 TPS CA6 20398 -0.0753 12.010000
20399 ha 16537 TPS HH6 20399 0.1332 1.008000
20400 ca 16537 TPS CA5 20400 -0.1548 12.010000
20401 ha 16537 TPS HA5 20401 0.1282 1.008000
20402 ca 16537 TPS CA4 20402 -0.1028 12.010000
20403 ha 16537 TPS HA4 20403 0.1262 1.008000
20404 ca 16537 TPS CA3 20404 -0.1548 12.010000
20405 ha 16537 TPS HA3 20405 0.1282 1.008000
20406 ha 16538 TPS HA2 20406 0.1332 1.008000
20407 ca 16538 TPS CA2 20407 -0.0753 12.010000
20408 ca 16538 TPS CA1 20408 -0.361 12.010000
20409 si 16538 TPS Si 20409 1.1 28.085000
20410 ca 16538 TPS CA6 20410 -0.0753 12.010000
20411 ha 16538 TPS HH6 20411 0.1332 1.008000
20412 ca 16538 TPS CA5 20412 -0.1548 12.010000
20413 ha 16538 TPS HA5 20413 0.1282 1.008000
20414 ca 16538 TPS CA4 20414 -0.1028 12.010000
20415 ha 16538 TPS HA4 20415 0.1262 1.008000
20416 ca 16538 TPS CA3 20416 -0.1548 12.010000
20417 ha 16538 TPS HA3 20417 0.1282 1.008000
20418 ha 16539 TPS HA2 20418 0.1332 1.008000
20419 ca 16539 TPS CA2 20419 -0.0753 12.010000
20420 ca 16539 TPS CA1 20420 -0.361 12.010000
20421 si 16539 TPS Si 20421 1.1 28.085000
20422 ca 16539 TPS CA6 20422 -0.0753 12.010000
20423 ha 16539 TPS HH6 20423 0.1332 1.008000
20424 ca 16539 TPS CA5 20424 -0.1548 12.010000
20425 ha 16539 TPS HA5 20425 0.1282 1.008000
20426 ca 16539 TPS CA4 20426 -0.1028 12.010000
20427 ha 16539 TPS HA4 20427 0.1262 1.008000
20428 ca 16539 TPS CA3 20428 -0.1548 12.010000
20429 ha 16539 TPS HA3 20429 0.1282 1.008000
20430 ha 16540 TPS HA2 20430 0.1332 1.008000
20431 ca 16540 TPS CA2 20431 -0.0753 12.010000
20432 ca 16540 TPS CA1 20432 -0.361 12.010000
20433 si 16540 TPS Si 20433 1.1 28.085000
20434 ca 16540 TPS CA6 20434 -0.0753 12.010000
20435 ha 16540 TPS HH6 20435 0.1332 1.008000
20436 ca 16540 TPS CA5 20436 -0.1548 12.010000
20437 ha 16540 TPS HA5 20437 0.1282 1.008000
20438 ca 16540 TPS CA4 20438 -0.1028 12.010000
20439 ha 16540 TPS HA4 20439 0.1262 1.008000
20440 ca 16540 TPS CA3 20440 -0.1548 12.010000
20441 ha 16540 TPS HA3 20441 0.1282 1.008000
20442 ha 16541 TPS HA2 20442 0.1332 1.008000
20443 ca 16541 TPS CA2 20443 -0.0753 12.010000
20444 ca 16541 TPS CA1 20444 -0.361 12.010000
20445 si 16541 TPS Si 20445 1.1 28.085000
20446 ca 16541 TPS CA6 20446 -0.0753 12.010000
20447 ha 16541 TPS HH6 20447 0.1332 1.008000
20448 ca 16541 TPS CA5 20448 -0.1548 12.010000
20449 ha 16541 TPS HA5 20449 0.1282 1.008000
20450 ca 16541 TPS CA4 20450 -0.1028 12.010000
20451 ha 16541 TPS HA4 20451 0.1262 1.008000
20452 ca 16541 TPS CA3 20452 -0.1548 12.010000
20453 ha 16541 TPS HA3 20453 0.1282 1.008000
20454 ha 16542 TPS HA2 20454 0.1332 1.008000
20455 ca 16542 TPS CA2 20455 -0.0753 12.010000
20456 ca 16542 TPS CA1 20456 -0.361 12.010000
20457 si 16542 TPS Si 20457 1.1 28.085000
20458 ca 16542 TPS CA6 20458 -0.0753 12.010000
20459 ha 16542 TPS HH6 20459 0.1332 1.008000
20460 ca 16542 TPS CA5 20460 -0.1548 12.010000
20461 ha 16542 TPS HA5 20461 0.1282 1.008000
20462 ca 16542 TPS CA4 20462 -0.1028 12.010000
20463 ha 16542 TPS HA4 20463 0.1262 1.008000
20464 ca 16542 TPS CA3 20464 -0.1548 12.010000
20465 ha 16542 TPS HA3 20465 0.1282 1.008000
20466 ha 16543 TPS HA2 20466 0.1332 1.008000
20467 ca 16543 TPS CA2 20467 -0.0753 12.010000
20468 ca 16543 TPS CA1 20468 -0.361 12.010000
20469 si 16543 TPS Si 20469 1.1 28.085000
20470 ca 16543 TPS CA6 20470 -0.0753 12.010000
20471 ha 16543 TPS HH6 20471 0.1332 1.008000
20472 ca 16543 TPS CA5 20472 -0.1548 12.010000
20473 ha 16543 TPS HA5 20473 0.1282 1.008000
20474 ca 16543 TPS CA4 20474 -0.1028 12.010000
20475 ha 16543 TPS HA4 20475 0.1262 1.008000
20476 ca 16543 TPS CA3 20476 -0.1548 12.010000
20477 ha 16543 TPS HA3 20477 0.1282 1.008000
20478 ha 16544 TPS HA2 20478 0.1332 1.008000
20479 ca 16544 TPS CA2 20479 -0.0753 12.010000
20480 ca 16544 TPS CA1 20480 -0.361 12.010000
20481 si 16544 TPS Si 20481 1.1 28.085000
20482 ca 16544 TPS CA6 20482 -0.0753 12.010000
20483 ha 16544 TPS HH6 20483 0.1332 1.008000
20484 ca 16544 TPS CA5 20484 -0.1548 12.010000
20485 ha 16544 TPS HA5 20485 0.1282 1.008000
20486 ca 16544 TPS CA4 20486 -0.1028 12.010000
20487 ha 16544 TPS HA4 20487 0.1262 1.008000
20488 ca 16544 TPS CA3 20488 -0.1548 12.010000
20489 ha 16544 TPS HA3 20489 0.1282 1.008000
20490 ha 16545 TPS HA2 20490 0.1332 1.008000
20491 ca 16545 TPS CA2 20491 -0.0753 12.010000
20492 ca 16545 TPS CA1 20492 -0.361 12.010000
20493 si 16545 TPS Si 20493 1.1 28.085000
20494 ca 16545 TPS CA6 20494 -0.0753 12.010000
20495 ha 16545 TPS HH6 20495 0.1332 1.008000
20496 ca 16545 TPS CA5 20496 -0.1548 12.010000
20497 ha 16545 TPS HA5 20497 0.1282 1.008000
20498 ca 16545 TPS CA4 20498 -0.1028 12.010000
20499 ha 16545 TPS HA4 20499 0.1262 1.008000
20500 ca 16545 TPS CA3 20500 -0.1548 12.010000
20501 ha 16545 TPS HA3 20501 0.1282 1.008000
20502 ha 16546 TPS HA2 20502 0.1332 1.008000
20503 ca 16546 TPS CA2 20503 -0.0753 12.010000
20504 ca 16546 TPS CA1 20504 -0.361 12.010000
20505 si 16546 TPS Si 20505 1.1 28.085000
20506 ca 16546 TPS CA6 20506 -0.0753 12.010000
20507 ha 16546 TPS HH6 20507 0.1332 1.008000
20508 ca 16546 TPS CA5 20508 -0.1548 12.010000
20509 ha 16546 TPS HA5 20509 0.1282 1.008000
20510 ca 16546 TPS CA4 20510 -0.1028 12.010000
20511 ha 16546 TPS HA4 20511 0.1262 1.008000
20512 ca 16546 TPS CA3 20512 -0.1548 12.010000
20513 ha 16546 TPS HA3 20513 0.1282 1.008000
20514 ha 16547 TPS HA2 20514 0.1332 1.008000
20515 ca 16547 TPS CA2 20515 -0.0753 12.010000
20516 ca 16547 TPS CA1 20516 -0.361 12.010000
20517 si 16547 TPS Si 20517 1.1 28.085000
20518 ca 16547 TPS CA6 20518 -0.0753 12.010000
20519 ha 16547 TPS HH6 20519 0.1332 1.008000
20520 ca 16547 TPS CA5 20520 -0.1548 12.010000
20521 ha 16547 TPS HA5 20521 0.1282 1.008000
20522 ca 16547 TPS CA4 20522 -0.1028 12.010000
20523 ha 16547 TPS HA4 20523 0.1262 1.008000
20524 ca 16547 TPS CA3 20524 -0.1548 12.010000
20525 ha 16547 TPS HA3 20525 0.1282 1.008000
20526 ha 16548 TPS HA2 20526 0.1332 1.008000
20527 ca 16548 TPS CA2 20527 -0.0753 12.010000
20528 ca 16548 TPS CA1 20528 -0.361 12.010000
20529 si 16548 TPS Si 20529 1.1 28.085000
20530 ca 16548 TPS CA6 20530 -0.0753 12.010000
20531 ha 16548 TPS HH6 20531 0.1332 1.008000
20532 ca 16548 TPS CA5 20532 -0.1548 12.010000
20533 ha 16548 TPS HA5 20533 0.1282 1.008000
20534 ca 16548 TPS CA4 20534 -0.1028 12.010000
20535 ha 16548 TPS HA4 20535 0.1262 1.008000
20536 ca 16548 TPS CA3 20536 -0.1548 12.010000
20537 ha 16548 TPS HA3 20537 0.1282 1.008000
20538 ha 16549 TPS HA2 20538 0.1332 1.008000
20539 ca 16549 TPS CA2 20539 -0.0753 12.010000
20540 ca 16549 TPS CA1 20540 -0.361 12.010000
20541 si 16549 TPS Si 20541 1.1 28.085000
20542 ca 16549 TPS CA6 20542 -0.0753 12.010000
20543 ha 16549 TPS HH6 20543 0.1332 1.008000
20544 ca 16549 TPS CA5 20544 -0.1548 12.010000
20545 ha 16549 TPS HA5 20545 0.1282 1.008000
20546 ca 16549 TPS CA4 20546 -0.1028 12.010000
20547 ha 16549 TPS HA4 20547 0.1262 1.008000
20548 ca 16549 TPS CA3 20548 -0.1548 12.010000
20549 ha 16549 TPS HA3 20549 0.1282 1.008000
20550 ha 16550 TPS HA2 20550 0.1332 1.008000
20551 ca 16550 TPS CA2 20551 -0.0753 12.010000
20552 ca 16550 TPS CA1 20552 -0.361 12.010000
20553 si 16550 TPS Si 20553 1.1 28.085000
20554 ca 16550 TPS CA6 20554 -0.0753 12.010000
20555 ha 16550 TPS HH6 20555 0.1332 1.008000
20556 ca 16550 TPS CA5 20556 -0.1548 12.010000
20557 ha 16550 TPS HA5 20557 0.1282 1.008000
20558 ca 16550 TPS CA4 20558 -0.1028 12.010000
20559 ha 16550 TPS HA4 20559 0.1262 1.008000
20560 ca 16550 TPS CA3 20560 -0.1548 12.010000
20561 ha 16550 TPS HA3 20561 0.1282 1.008000
20562 ha 16551 TPS HA2 20562 0.1332 1.008000
20563 ca 16551 TPS CA2 20563 -0.0753 12.010000
20564 ca 16551 TPS CA1 20564 -0.361 12.010000
20565 si 16551 TPS Si 20565 1.1 28.085000
20566 ca 16551 TPS CA6 20566 -0.0753 12.010000
20567 ha 16551 TPS HH6 20567 0.1332 1.008000
20568 ca 16551 TPS CA5 20568 -0.1548 12.010000
20569 ha 16551 TPS HA5 20569 0.1282 1.008000
20570 ca 16551 TPS CA4 20570 -0.1028 12.010000
20571 ha 16551 TPS HA4 20571 0.1262 1.008000
20572 ca 16551 TPS CA3 20572 -0.1548 12.010000
20573 ha 16551 TPS HA3 20573 0.1282 1.008000
20574 ha 16552 TPS HA2 20574 0.1332 1.008000
20575 ca 16552 TPS CA2 20575 -0.0753 12.010000
20576 ca 16552 TPS CA1 20576 -0.361 12.010000
20577 si 16552 TPS Si 20577 1.1 28.085000
20578 ca 16552 TPS CA6 20578 -0.0753 12.010000
20579 ha 16552 TPS HH6 20579 0.1332 1.008000
20580 ca 16552 TPS CA5 20580 -0.1548 12.010000
20581 ha 16552 TPS HA5 20581 0.1282 1.008000
20582 ca 16552 TPS CA4 20582 -0.1028 12.010000
20583 ha 16552 TPS HA4 20583 0.1262 1.008000
20584 ca 16552 TPS CA3 20584 -0.1548 12.010000
20585 ha 16552 TPS HA3 20585 0.1282 1.008000
20586 ha 16553 TPS HA2 20586 0.1332 1.008000
20587 ca 16553 TPS CA2 20587 -0.0753 12.010000
20588 ca 16553 TPS CA1 20588 -0.361 12.010000
20589 si 16553 TPS Si 20589 1.1 28.085000
20590 ca 16553 TPS CA6 20590 -0.0753 12.010000
20591 ha 16553 TPS HH6 20591 0.1332 1.008000
20592 ca 16553 TPS CA5 20592 -0.1548 12.010000
20593 ha 16553 TPS HA5 20593 0.1282 1.008000
20594 ca 16553 TPS CA4 20594 -0.1028 12.010000
20595 ha 16553 TPS HA4 20595 0.1262 1.008000
20596 ca 16553 TPS CA3 20596 -0.1548 12.010000
20597 ha 16553 TPS HA3 20597 0.1282 1.008000
20598 ha 16554 TPS HA2 20598 0.1332 1.008000
20599 ca 16554 TPS CA2 20599 -0.0753 12.010000
20600 ca 16554 TPS CA1 20600 -0.361 12.010000
20601 si 16554 TPS Si 20601 1.1 28.085000
20602 ca 16554 TPS CA6 20602 -0.0753 12.010000
20603 ha 16554 TPS HH6 20603 0.1332 1.008000
20604 ca 16554 TPS CA5 20604 -0.1548 12.010000
20605 ha 16554 TPS HA5 20605 0.1282 1.008000
20606 ca 16554 TPS CA4 20606 -0.1028 12.010000
20607 ha 16554 TPS HA4 20607 0.1262 1.008000
20608 ca 16554 TPS CA3 20608 -0.1548 12.010000
20609 ha 16554 TPS HA3 20609 0.1282 1.008000
20610 ha 16555 TPS HA2 20610 0.1332 1.008000
20611 ca 16555 TPS CA2 20611 -0.0753 12.010000
20612 ca 16555 TPS CA1 20612 -0.361 12.010000
20613 si 16555 TPS Si 20613 1.1 28.085000
20614 ca 16555 TPS CA6 20614 -0.0753 12.010000
20615 ha 16555 TPS HH6 20615 0.1332 1.008000
20616 ca 16555 TPS CA5 20616 -0.1548 12.010000
20617 ha 16555 TPS HA5 20617 0.1282 1.008000
20618 ca 16555 TPS CA4 20618 -0.1028 12.010000
20619 ha 16555 TPS HA4 20619 0.1262 1.008000
20620 ca 16555 TPS CA3 20620 -0.1548 12.010000
20621 ha 16555 TPS HA3 20621 0.1282 1.008000
20622 ha 16556 TPS HA2 20622 0.1332 1.008000
20623 ca 16556 TPS CA2 20623 -0.0753 12.010000
20624 ca 16556 TPS CA1 20624 -0.361 12.010000
20625 si 16556 TPS Si 20625 1.1 28.085000
20626 ca 16556 TPS CA6 20626 -0.0753 12.010000
20627 ha 16556 TPS HH6 20627 0.1332 1.008000
20628 ca 16556 TPS CA5 20628 -0.1548 12.010000
20629 ha 16556 TPS HA5 20629 0.1282 1.008000
20630 ca 16556 TPS CA4 20630 -0.1028 12.010000
20631 ha 16556 TPS HA4 20631 0.1262 1.008000
20632 ca 16556 TPS CA3 20632 -0.1548 12.010000
20633 ha 16556 TPS HA3 20633 0.1282 1.008000
20634 ha 16557 TPS HA2 20634 0.1332 1.008000
20635 ca 16557 TPS CA2 20635 -0.0753 12.010000
20636 ca 16557 TPS CA1 20636 -0.361 12.010000
20637 si 16557 TPS Si 20637 1.1 28.085000
20638 ca 16557 TPS CA6 20638 -0.0753 12.010000
20639 ha 16557 TPS HH6 20639 0.1332 1.008000
20640 ca 16557 TPS CA5 20640 -0.1548 12.010000
20641 ha 16557 TPS HA5 20641 0.1282 1.008000
20642 ca 16557 TPS CA4 20642 -0.1028 12.010000
20643 ha 16557 TPS HA4 20643 0.1262 1.008000
20644 ca 16557 TPS CA3 20644 -0.1548 12.010000
20645 ha 16557 TPS HA3 20645 0.1282 1.008000
20646 ha 16558 TPS HA2 20646 0.1332 1.008000
20647 ca 16558 TPS CA2 20647 -0.0753 12.010000
20648 ca 16558 TPS CA1 20648 -0.361 12.010000
20649 si 16558 TPS Si 20649 1.1 28.085000
20650 ca 16558 TPS CA6 20650 -0.0753 12.010000
20651 ha 16558 TPS HH6 20651 0.1332 1.008000
20652 ca 16558 TPS CA5 20652 -0.1548 12.010000
20653 ha 16558 TPS HA5 20653 0.1282 1.008000
20654 ca 16558 TPS CA4 20654 -0.1028 12.010000
20655 ha 16558 TPS HA4 20655 0.1262 1.008000
20656 ca 16558 TPS CA3 20656 -0.1548 12.010000
20657 ha 16558 TPS HA3 20657 0.1282 1.008000
20658 ha 16559 TPS HA2 20658 0.1332 1.008000
20659 ca 16559 TPS CA2 20659 -0.0753 12.010000
20660 ca 16559 TPS CA1 20660 -0.361 12.010000
20661 si 16559 TPS Si 20661 1.1 28.085000
20662 ca 16559 TPS CA6 20662 -0.0753 12.010000
20663 ha 16559 TPS HH6 20663 0.1332 1.008000
20664 ca 16559 TPS CA5 20664 -0.1548 12.010000
20665 ha 16559 TPS HA5 20665 0.1282 1.008000
20666 ca 16559 TPS CA4 20666 -0.1028 12.010000
20667 ha 16559 TPS HA4 20667 0.1262 1.008000
20668 ca 16559 TPS CA3 20668 -0.1548 12.010000
20669 ha 16559 TPS HA3 20669 0.1282 1.008000
20670 ha 16560 TPS HA2 20670 0.1332 1.008000
20671 ca 16560 TPS CA2 20671 -0.0753 12.010000
20672 ca 16560 TPS CA1 20672 -0.361 12.010000
20673 si 16560 TPS Si 20673 1.1 28.085000
20674 ca 16560 TPS CA6 20674 -0.0753 12.010000
20675 ha 16560 TPS HH6 20675 0.1332 1.008000
20676 ca 16560 TPS CA5 20676 -0.1548 12.010000
20677 ha 16560 TPS HA5 20677 0.1282 1.008000
20678 ca 16560 TPS CA4 20678 -0.1028 12.010000
20679 ha 16560 TPS HA4 20679 0.1262 1.008000
20680 ca 16560 TPS CA3 20680 -0.1548 12.010000
20681 ha 16560 TPS HA3 20681 0.1282 1.008000
20682 ha 16561 TPS HA2 20682 0.1332 1.008000
20683 ca 16561 TPS CA2 20683 -0.0753 12.010000
20684 ca 16561 TPS CA1 20684 -0.361 12.010000
20685 si 16561 TPS Si 20685 1.1 28.085000
20686 ca 16561 TPS CA6 20686 -0.0753 12.010000
20687 ha 16561 TPS HH6 20687 0.1332 1.008000
20688 ca 16561 TPS CA5 20688 -0.1548 12.010000
20689 ha 16561 TPS HA5 20689 0.1282 1.008000
20690 ca 16561 TPS CA4 20690 -0.1028 12.010000
20691 ha 16561 TPS HA4 20691 0.1262 1.008000
20692 ca 16561 TPS CA3 20692 -0.1548 12.010000
20693 ha 16561 TPS HA3 20693 0.1282 1.008000
20694 ha 16562 TPS HA2 20694 0.1332 1.008000
20695 ca 16562 TPS CA2 20695 -0.0753 12.010000
20696 ca 16562 TPS CA1 20696 -0.361 12.010000
20697 si 16562 TPS Si 20697 1.1 28.085000
20698 ca 16562 TPS CA6 20698 -0.0753 12.010000
20699 ha 16562 TPS HH6 20699 0.1332 1.008000
20700 ca 16562 TPS CA5 20700 -0.1548 12.010000
20701 ha 16562 TPS HA5 20701 0.1282 1.008000
20702 ca 16562 TPS CA4 20702 -0.1028 12.010000
20703 ha 16562 TPS HA4 20703 0.1262 1.008000
20704 ca 16562 TPS CA3 20704 -0.1548 12.010000
20705 ha 16562 TPS HA3 20705 0.1282 1.008000
20706 ha 16563 TPS HA2 20706 0.1332 1.008000
20707 ca 16563 TPS CA2 20707 -0.0753 12.010000
20708 ca 16563 TPS CA1 20708 -0.361 12.010000
20709 si 16563 TPS Si 20709 1.1 28.085000
20710 ca 16563 TPS CA6 20710 -0.0753 12.010000
20711 ha 16563 TPS HH6 20711 0.1332 1.008000
20712 ca 16563 TPS CA5 20712 -0.1548 12.010000
20713 ha 16563 TPS HA5 20713 0.1282 1.008000
20714 ca 16563 TPS CA4 20714 -0.1028 12.010000
20715 ha 16563 TPS HA4 20715 0.1262 1.008000
20716 ca 16563 TPS CA3 20716 -0.1548 12.010000
20717 ha 16563 TPS HA3 20717 0.1282 1.008000
20718 ha 16564 TPS HA2 20718 0.1332 1.008000
20719 ca 16564 TPS CA2 20719 -0.0753 12.010000
20720 ca 16564 TPS CA1 20720 -0.361 12.010000
20721 si 16564 TPS Si 20721 1.1 28.085000
20722 ca 16564 TPS CA6 20722 -0.0753 12.010000
20723 ha 16564 TPS HH6 20723 0.1332 1.008000
20724 ca 16564 TPS CA5 20724 -0.1548 12.010000
20725 ha 16564 TPS HA5 20725 0.1282 1.008000
20726 ca 16564 TPS CA4 20726 -0.1028 12.010000
20727 ha 16564 TPS HA4 20727 0.1262 1.008000
20728 ca 16564 TPS CA3 20728 -0.1548 12.010000
20729 ha 16564 TPS HA3 20729 0.1282 1.008000
20730 ha 16565 TPS HA2 20730 0.1332 1.008000
20731 ca 16565 TPS CA2 20731 -0.0753 12.010000
20732 ca 16565 TPS CA1 20732 -0.361 12.010000
20733 si 16565 TPS Si 20733 1.1 28.085000
20734 ca 16565 TPS CA6 20734 -0.0753 12.010000
20735 ha 16565 TPS HH6 20735 0.1332 1.008000
20736 ca 16565 TPS CA5 20736 -0.1548 12.010000
20737 ha 16565 TPS HA5 20737 0.1282 1.008000
20738 ca 16565 TPS CA4 20738 -0.1028 12.010000
20739 ha 16565 TPS HA4 20739 0.1262 1.008000
20740 ca 16565 TPS CA3 20740 -0.1548 12.010000
20741 ha 16565 TPS HA3 20741 0.1282 1.008000
20742 ha 16566 TPS HA2 20742 0.1332 1.008000
20743 ca 16566 TPS CA2 20743 -0.0753 12.010000
20744 ca 16566 TPS CA1 20744 -0.361 12.010000
20745 si 16566 TPS Si 20745 1.1 28.085000
20746 ca 16566 TPS CA6 20746 -0.0753 12.010000
20747 ha 16566 TPS HH6 20747 0.1332 1.008000
20748 ca 16566 TPS CA5 20748 -0.1548 12.010000
20749 ha 16566 TPS HA5 20749 0.1282 1.008000
20750 ca 16566 TPS CA4 20750 -0.1028 12.010000
20751 ha 16566 TPS HA4 20751 0.1262 1.008000
20752 ca 16566 TPS CA3 20752 -0.1548 12.010000
20753 ha 16566 TPS HA3 20753 0.1282 1.008000
20754 ha 16567 TPS HA2 20754 0.1332 1.008000
20755 ca 16567 TPS CA2 20755 -0.0753 12.010000
20756 ca 16567 TPS CA1 20756 -0.361 12.010000
20757 si 16567 TPS Si 20757 1.1 28.085000
20758 ca 16567 TPS CA6 20758 -0.0753 12.010000
20759 ha 16567 TPS HH6 20759 0.1332 1.008000
20760 ca 16567 TPS CA5 20760 -0.1548 12.010000
20761 ha 16567 TPS HA5 20761 0.1282 1.008000
20762 ca 16567 TPS CA4 20762 -0.1028 12.010000
20763 ha 16567 TPS HA4 20763 0.1262 1.008000
20764 ca 16567 TPS CA3 20764 -0.1548 12.010000
20765 ha 16567 TPS HA3 20765 0.1282 1.008000
20766 ha 16568 TPS HA2 20766 0.1332 1.008000
20767 ca 16568 TPS CA2 20767 -0.0753 12.010000
20768 ca 16568 TPS CA1 20768 -0.361 12.010000
20769 si 16568 TPS Si 20769 1.1 28.085000
20770 ca 16568 TPS CA6 20770 -0.0753 12.010000
20771 ha 16568 TPS HH6 20771 0.1332 1.008000
20772 ca 16568 TPS CA5 20772 -0.1548 12.010000
20773 ha 16568 TPS HA5 20773 0.1282 1.008000
20774 ca 16568 TPS CA4 20774 -0.1028 12.010000
20775 ha 16568 TPS HA4 20775 0.1262 1.008000
20776 ca 16568 TPS CA3 20776 -0.1548 12.010000
20777 ha 16568 TPS HA3 20777 0.1282 1.008000
20778 ha 16569 TPS HA2 20778 0.1332 1.008000
20779 ca 16569 TPS CA2 20779 -0.0753 12.010000
20780 ca 16569 TPS CA1 20780 -0.361 12.010000
20781 si 16569 TPS Si 20781 1.1 28.085000
20782 ca 16569 TPS CA6 20782 -0.0753 12.010000
20783 ha 16569 TPS HH6 20783 0.1332 1.008000
20784 ca 16569 TPS CA5 20784 -0.1548 12.010000
20785 ha 16569 TPS HA5 20785 0.1282 1.008000
20786 ca 16569 TPS CA4 20786 -0.1028 12.010000
20787 ha 16569 TPS HA4 20787 0.1262 1.008000
20788 ca 16569 TPS CA3 20788 -0.1548 12.010000
20789 ha 16569 TPS HA3 20789 0.1282 1.008000
20790 ha 16570 TPS HA2 20790 0.1332 1.008000
20791 ca 16570 TPS CA2 20791 -0.0753 12.010000
20792 ca 16570 TPS CA1 20792 -0.361 12.010000
20793 si 16570 TPS Si 20793 1.1 28.085000
20794 ca 16570 TPS CA6 20794 -0.0753 12.010000
20795 ha 16570 TPS HH6 20795 0.1332 1.008000
20796 ca 16570 TPS CA5 20796 -0.1548 12.010000
20797 ha 16570 TPS HA5 20797 0.1282 1.008000
20798 ca 16570 TPS CA4 20798 -0.1028 12.010000
20799 ha 16570 TPS HA4 20799 0.1262 1.008000
20800 ca 16570 TPS CA3 20800 -0.1548 12.010000
20801 ha 16570 TPS HA3 20801 0.1282 1.008000
20802 ha 16571 TPS HA2 20802 0.1332 1.008000
20803 ca 16571 TPS CA2 20803 -0.0753 12.010000
20804 ca 16571 TPS CA1 20804 -0.361 12.010000
20805 si 16571 TPS Si 20805 1.1 28.085000
20806 ca 16571 TPS CA6 20806 -0.0753 12.010000
20807 ha 16571 TPS HH6 20807 0.1332 1.008000
20808 ca 16571 TPS CA5 20808 -0.1548 12.010000
20809 ha 16571 TPS HA5 20809 0.1282 1.008000
20810 ca 16571 TPS CA4 20810 -0.1028 12.010000
20811 ha 16571 TPS HA4 20811 0.1262 1.008000
20812 ca 16571 TPS CA3 20812 -0.1548 12.010000
20813 ha 16571 TPS HA3 20813 0.1282 1.008000
20814 ha 16572 TPS HA2 20814 0.1332 1.008000
20815 ca 16572 TPS CA2 20815 -0.0753 12.010000
20816 ca 16572 TPS CA1 20816 -0.361 12.010000
20817 si 16572 TPS Si 20817 1.1 28.085000
20818 ca 16572 TPS CA6 20818 -0.0753 12.010000
20819 ha 16572 TPS HH6 20819 0.1332 1.008000
20820 ca 16572 TPS CA5 20820 -0.1548 12.010000
20821 ha 16572 TPS HA5 20821 0.1282 1.008000
20822 ca 16572 TPS CA4 20822 -0.1028 12.010000
20823 ha 16572 TPS HA4 20823 0.1262 1.008000
20824 ca 16572 TPS CA3 20824 -0.1548 12.010000
20825 ha 16572 TPS HA3 20825 0.1282 1.008000
20826 ha 16573 TPS HA2 20826 0.1332 1.008000
20827 ca 16573 TPS CA2 20827 -0.0753 12.010000
20828 ca 16573 TPS CA1 20828 -0.361 12.010000
20829 si 16573 TPS Si 20829 1.1 28.085000
20830 ca 16573 TPS CA6 20830 -0.0753 12.010000
20831 ha 16573 TPS HH6 20831 0.1332 1.008000
20832 ca 16573 TPS CA5 20832 -0.1548 12.010000
20833 ha 16573 TPS HA5 20833 0.1282 1.008000
20834 ca 16573 TPS CA4 20834 -0.1028 12.010000
20835 ha 16573 TPS HA4 20835 0.1262 1.008000
20836 ca 16573 TPS CA3 20836 -0.1548 12.010000
20837 ha 16573 TPS HA3 20837 0.1282 1.008000
20838 ha 16574 TPS HA2 20838 0.1332 1.008000
20839 ca 16574 TPS CA2 20839 -0.0753 12.010000
20840 ca 16574 TPS CA1 20840 -0.361 12.010000
20841 si 16574 TPS Si 20841 1.1 28.085000
20842 ca 16574 TPS CA6 20842 -0.0753 12.010000
20843 ha 16574 TPS HH6 20843 0.1332 1.008000
20844 ca 16574 TPS CA5 20844 -0.1548 12.010000
20845 ha 16574 TPS HA5 20845 0.1282 1.008000
20846 ca 16574 TPS CA4 20846 -0.1028 12.010000
20847 ha 16574 TPS HA4 20847 0.1262 1.008000
20848 ca 16574 TPS CA3 20848 -0.1548 12.010000
20849 ha 16574 TPS HA3 20849 0.1282 1.008000
20850 ha 16575 TPS HA2 20850 0.1332 1.008000
20851 ca 16575 TPS CA2 20851 -0.0753 12.010000
20852 ca 16575 TPS CA1 20852 -0.361 12.010000
20853 si 16575 TPS Si 20853 1.1 28.085000
20854 ca 16575 TPS CA6 20854 -0.0753 12.010000
20855 ha 16575 TPS HH6 20855 0.1332 1.008000
20856 ca 16575 TPS CA5 20856 -0.1548 12.010000
20857 ha 16575 TPS HA5 20857 0.1282 1.008000
20858 ca 16575 TPS CA4 20858 -0.1028 12.010000
20859 ha 16575 TPS HA4 20859 0.1262 1.008000
20860 ca 16575 TPS CA3 20860 -0.1548 12.010000
20861 ha 16575 TPS HA3 20861 0.1282 1.008000
20862 ha 16576 TPS HA2 20862 0.1332 1.008000
20863 ca 16576 TPS CA2 20863 -0.0753 12.010000
20864 ca 16576 TPS CA1 20864 -0.361 12.010000
20865 si 16576 TPS Si 20865 1.1 28.085000
20866 ca 16576 TPS CA6 20866 -0.0753 12.010000
20867 ha 16576 TPS HH6 20867 0.1332 1.008000
20868 ca 16576 TPS CA5 20868 -0.1548 12.010000
20869 ha 16576 TPS HA5 20869 0.1282 1.008000
20870 ca 16576 TPS CA4 20870 -0.1028 12.010000
20871 ha 16576 TPS HA4 20871 0.1262 1.008000
20872 ca 16576 TPS CA3 20872 -0.1548 12.010000
20873 ha 16576 TPS HA3 20873 0.1282 1.008000
20874 ha 16577 TPS HA2 20874 0.1332 1.008000
20875 ca 16577 TPS CA2 20875 -0.0753 12.010000
20876 ca 16577 TPS CA1 20876 -0.361 12.010000
20877 si 16577 TPS Si 20877 1.1 28.085000
20878 ca 16577 TPS CA6 20878 -0.0753 12.010000
20879 ha 16577 TPS HH6 20879 0.1332 1.008000
20880 ca 16577 TPS CA5 20880 -0.1548 12.010000
20881 ha 16577 TPS HA5 20881 0.1282 1.008000
20882 ca 16577 TPS CA4 20882 -0.1028 12.010000
20883 ha 16577 TPS HA4 20883 0.1262 1.008000
20884 ca 16577 TPS CA3 20884 -0.1548 12.010000
20885 ha 16577 TPS HA3 20885 0.1282 1.008000
20886 ha 16578 TPS HA2 20886 0.1332 1.008000
20887 ca 16578 TPS CA2 20887 -0.0753 12.010000
20888 ca 16578 TPS CA1 20888 -0.361 12.010000
20889 si 16578 TPS Si 20889 1.1 28.085000
20890 ca 16578 TPS CA6 20890 -0.0753 12.010000
20891 ha 16578 TPS HH6 20891 0.1332 1.008000
20892 ca 16578 TPS CA5 20892 -0.1548 12.010000
20893 ha 16578 TPS HA5 20893 0.1282 1.008000
20894 ca 16578 TPS CA4 20894 -0.1028 12.010000
20895 ha 16578 TPS HA4 20895 0.1262 1.008000
20896 ca 16578 TPS CA3 20896 -0.1548 12.010000
20897 ha 16578 TPS HA3 20897 0.1282 1.008000
20898 ha 16579 TPS HA2 20898 0.1332 1.008000
20899 ca 16579 TPS CA2 20899 -0.0753 12.010000
20900 ca 16579 TPS CA1 20900 -0.361 12.010000
20901 si 16579 TPS Si 20901 1.1 28.085000
20902 ca 16579 TPS CA6 20902 -0.0753 12.010000
20903 ha 16579 TPS HH6 20903 0.1332 1.008000
20904 ca 16579 TPS CA5 20904 -0.1548 12.010000
20905 ha 16579 TPS HA5 20905 0.1282 1.008000
20906 ca 16579 TPS CA4 20906 -0.1028 12.010000
20907 ha 16579 TPS HA4 20907 0.1262 1.008000
20908 ca 16579 TPS CA3 20908 -0.1548 12.010000
20909 ha 16579 TPS HA3 20909 0.1282 1.008000
20910 ha 16580 TPS HA2 20910 0.1332 1.008000
20911 ca 16580 TPS CA2 20911 -0.0753 12.010000
20912 ca 16580 TPS CA1 20912 -0.361 12.010000
20913 si 16580 TPS Si 20913 1.1 28.085000
20914 ca 16580 TPS CA6 20914 -0.0753 12.010000
20915 ha 16580 TPS HH6 20915 0.1332 1.008000
20916 ca 16580 TPS CA5 20916 -0.1548 12.010000
20917 ha 16580 TPS HA5 20917 0.1282 1.008000
20918 ca 16580 TPS CA4 20918 -0.1028 12.010000
20919 ha 16580 TPS HA4 20919 0.1262 1.008000
20920 ca 16580 TPS CA3 20920 -0.1548 12.010000
20921 ha 16580 TPS HA3 20921 0.1282 1.008000
20922 ha 16581 TPS HA2 20922 0.1332 1.008000
20923 ca 16581 TPS CA2 20923 -0.0753 12.010000
20924 ca 16581 TPS CA1 20924 -0.361 12.010000
20925 si 16581 TPS Si 20925 1.1 28.085000
20926 ca 16581 TPS CA6 20926 -0.0753 12.010000
20927 ha 16581 TPS HH6 20927 0.1332 1.008000
20928 ca 16581 TPS CA5 20928 -0.1548 12.010000
20929 ha 16581 TPS HA5 20929 0.1282 1.008000
20930 ca 16581 TPS CA4 20930 -0.1028 12.010000
20931 ha 16581 TPS HA4 20931 0.1262 1.008000
20932 ca 16581 TPS CA3 20932 -0.1548 12.010000
20933 ha 16581 TPS HA3 20933 0.1282 1.008000
20934 ha 16582 TPS HA2 20934 0.1332 1.008000
20935 ca 16582 TPS CA2 20935 -0.0753 12.010000
20936 ca 16582 TPS CA1 20936 -0.361 12.010000
20937 si 16582 TPS Si 20937 1.1 28.085000
20938 ca 16582 TPS CA6 20938 -0.0753 12.010000
20939 ha 16582 TPS HH6 20939 0.1332 1.008000
20940 ca 16582 TPS CA5 20940 -0.1548 12.010000
20941 ha 16582 TPS HA5 20941 0.1282 1.008000
20942 ca 16582 TPS CA4 20942 -0.1028 12.010000
20943 ha 16582 TPS HA4 20943 0.1262 1.008000
20944 ca 16582 TPS CA3 20944 -0.1548 12.010000
20945 ha 16582 TPS HA3 20945 0.1282 1.008000
20946 ha 16583 TPS HA2 20946 0.1332 1.008000
20947 ca 16583 TPS CA2 20947 -0.0753 12.010000
20948 ca 16583 TPS CA1 20948 -0.361 12.010000
20949 si 16583 TPS Si 20949 1.1 28.085000
20950 ca 16583 TPS CA6 20950 -0.0753 12.010000
20951 ha 16583 TPS HH6 20951 0.1332 1.008000
20952 ca 16583 TPS CA5 20952 -0.1548 12.010000
20953 ha 16583 TPS HA5 20953 0.1282 1.008000
20954 ca 16583 TPS CA4 20954 -0.1028 12.010000
20955 ha 16583 TPS HA4 20955 0.1262 1.008000
20956 ca 16583 TPS CA3 20956 -0.1548 12.010000
20957 ha 16583 TPS HA3 20957 0.1282 1.008000
20958 ha 16584 TPS HA2 20958 0.1332 1.008000
20959 ca 16584 TPS CA2 20959 -0.0753 12.010000
20960 ca 16584 TPS CA1 20960 -0.361 12.010000
20961 si 16584 TPS Si 20961 1.1 28.085000
20962 ca 16584 TPS CA6 20962 -0.0753 12.010000
20963 ha 16584 TPS HH6 20963 0.1332 1.008000
20964 ca 16584 TPS CA5 20964 -0.1548 12.010000
20965 ha 16584 TPS HA5 20965 0.1282 1.008000
20966 ca 16584 TPS CA4 20966 -0.1028 12.010000
20967 ha 16584 TPS HA4 20967 0.1262 1.008000
20968 ca 16584 TPS CA3 20968 -0.1548 12.010000
20969 ha 16584 TPS HA3 20969 0.1282 1.008000
20970 ha 16585 TPS HA2 20970 0.1332 1.008000
20971 ca 16585 TPS CA2 20971 -0.0753 12.010000
20972 ca 16585 TPS CA1 20972 -0.361 12.010000
20973 si 16585 TPS Si 20973 1.1 28.085000
20974 ca 16585 TPS CA6 20974 -0.0753 12.010000
20975 ha 16585 TPS HH6 20975 0.1332 1.008000
20976 ca 16585 TPS CA5 20976 -0.1548 12.010000
20977 ha 16585 TPS HA5 20977 0.1282 1.008000
20978 ca 16585 TPS CA4 20978 -0.1028 12.010000
20979 ha 16585 TPS HA4 20979 0.1262 1.008000
20980 ca 16585 TPS CA3 20980 -0.1548 12.010000
20981 ha 16585 TPS HA3 20981 0.1282 1.008000
20982 ha 16586 TPS HA2 20982 0.1332 1.008000
20983 ca 16586 TPS CA2 20983 -0.0753 12.010000
20984 ca 16586 TPS CA1 20984 -0.361 12.010000
20985 si 16586 TPS Si 20985 1.1 28.085000
20986 ca 16586 TPS CA6 20986 -0.0753 12.010000
20987 ha 16586 TPS HH6 20987 0.1332 1.008000
20988 ca 16586 TPS CA5 20988 -0.1548 12.010000
20989 ha 16586 TPS HA5 20989 0.1282 1.008000
20990 ca 16586 TPS CA4 20990 -0.1028 12.010000
20991 ha 16586 TPS HA4 20991 0.1262 1.008000
20992 ca 16586 TPS CA3 20992 -0.1548 12.010000
20993 ha 16586 TPS HA3 20993 0.1282 1.008000
20994 ha 16587 TPS HA2 20994 0.1332 1.008000
20995 ca 16587 TPS CA2 20995 -0.0753 12.010000
20996 ca 16587 TPS CA1 20996 -0.361 12.010000
20997 si 16587 TPS Si 20997 1.1 28.085000
20998 ca 16587 TPS CA6 20998 -0.0753 12.010000
20999 ha 16587 TPS HH6 20999 0.1332 1.008000
21000 ca 16587 TPS CA5 21000 -0.1548 12.010000
21001 ha 16587 TPS HA5 21001 0.1282 1.008000
21002 ca 16587 TPS CA4 21002 -0.1028 12.010000
21003 ha 16587 TPS HA4 21003 0.1262 1.008000
21004 ca 16587 TPS CA3 21004 -0.1548 12.010000
21005 ha 16587 TPS HA3 21005 0.1282 1.008000
21006 ha 16588 TPS HA2 21006 0.1332 1.008000
21007 ca 16588 TPS CA2 21007 -0.0753 12.010000
21008 ca 16588 TPS CA1 21008 -0.361 12.010000
21009 si 16588 TPS Si 21009 1.1 28.085000
21010 ca 16588 TPS CA6 21010 -0.0753 12.010000
21011 ha 16588 TPS HH6 21011 0.1332 1.008000
21012 ca 16588 TPS CA5 21012 -0.1548 12.010000
21013 ha 16588 TPS HA5 21013 0.1282 1.008000
21014 ca 16588 TPS CA4 21014 -0.1028 12.010000
21015 ha 16588 TPS HA4 21015 0.1262 1.008000
21016 ca 16588 TPS CA3 21016 -0.1548 12.010000
21017 ha 16588 TPS HA3 21017 0.1282 1.008000
21018 ha 16589 TPS HA2 21018 0.1332 1.008000
21019 ca 16589 TPS CA2 21019 -0.0753 12.010000
21020 ca 16589 TPS CA1 21020 -0.361 12.010000
21021 si 16589 TPS Si 21021 1.1 28.085000
21022 ca 16589 TPS CA6 21022 -0.0753 12.010000
21023 ha 16589 TPS HH6 21023 0.1332 1.008000
21024 ca 16589 TPS CA5 21024 -0.1548 12.010000
21025 ha 16589 TPS HA5 21025 0.1282 1.008000
21026 ca 16589 TPS CA4 21026 -0.1028 12.010000
21027 ha 16589 TPS HA4 21027 0.1262 1.008000
21028 ca 16589 TPS CA3 21028 -0.1548 12.010000
21029 ha 16589 TPS HA3 21029 0.1282 1.008000
21030 ha 16590 TPS HA2 21030 0.1332 1.008000
21031 ca 16590 TPS CA2 21031 -0.0753 12.010000
21032 ca 16590 TPS CA1 21032 -0.361 12.010000
21033 si 16590 TPS Si 21033 1.1 28.085000
21034 ca 16590 TPS CA6 21034 -0.0753 12.010000
21035 ha 16590 TPS HH6 21035 0.1332 1.008000
21036 ca 16590 TPS CA5 21036 -0.1548 12.010000
21037 ha 16590 TPS HA5 21037 0.1282 1.008000
21038 ca 16590 TPS CA4 21038 -0.1028 12.010000
21039 ha 16590 TPS HA4 21039 0.1262 1.008000
21040 ca 16590 TPS CA3 21040 -0.1548 12.010000
21041 ha 16590 TPS HA3 21041 0.1282 1.008000
21042 ha 16591 TPS HA2 21042 0.1332 1.008000
21043 ca 16591 TPS CA2 21043 -0.0753 12.010000
21044 ca 16591 TPS CA1 21044 -0.361 12.010000
21045 si 16591 TPS Si 21045 1.1 28.085000
21046 ca 16591 TPS CA6 21046 -0.0753 12.010000
21047 ha 16591 TPS HH6 21047 0.1332 1.008000
21048 ca 16591 TPS CA5 21048 -0.1548 12.010000
21049 ha 16591 TPS HA5 21049 0.1282 1.008000
21050 ca 16591 TPS CA4 21050 -0.1028 12.010000
21051 ha 16591 TPS HA4 21051 0.1262 1.008000
21052 ca 16591 TPS CA3 21052 -0.1548 12.010000
21053 ha 16591 TPS HA3 21053 0.1282 1.008000
21054 ha 16592 TPS HA2 21054 0.1332 1.008000
21055 ca 16592 TPS CA2 21055 -0.0753 12.010000
21056 ca 16592 TPS CA1 21056 -0.361 12.010000
21057 si 16592 TPS Si 21057 1.1 28.085000
21058 ca 16592 TPS CA6 21058 -0.0753 12.010000
21059 ha 16592 TPS HH6 21059 0.1332 1.008000
21060 ca 16592 TPS CA5 21060 -0.1548 12.010000
21061 ha 16592 TPS HA5 21061 0.1282 1.008000
21062 ca 16592 TPS CA4 21062 -0.1028 12.010000
21063 ha 16592 TPS HA4 21063 0.1262 1.008000
21064 ca 16592 TPS CA3 21064 -0.1548 12.010000
21065 ha 16592 TPS HA3 21065 0.1282 1.008000
21066 ha 16593 TPS HA2 21066 0.1332 1.008000
21067 ca 16593 TPS CA2 21067 -0.0753 12.010000
21068 ca 16593 TPS CA1 21068 -0.361 12.010000
21069 si 16593 TPS Si 21069 1.1 28.085000
21070 ca 16593 TPS CA6 21070 -0.0753 12.010000
21071 ha 16593 TPS HH6 21071 0.1332 1.008000
21072 ca 16593 TPS CA5 21072 -0.1548 12.010000
21073 ha 16593 TPS HA5 21073 0.1282 1.008000
21074 ca 16593 TPS CA4 21074 -0.1028 12.010000
21075 ha 16593 TPS HA4 21075 0.1262 1.008000
21076 ca 16593 TPS CA3 21076 -0.1548 12.010000
21077 ha 16593 TPS HA3 21077 0.1282 1.008000
21078 ha 16594 TPS HA2 21078 0.1332 1.008000
21079 ca 16594 TPS CA2 21079 -0.0753 12.010000
21080 ca 16594 TPS CA1 21080 -0.361 12.010000
21081 si 16594 TPS Si 21081 1.1 28.085000
21082 ca 16594 TPS CA6 21082 -0.0753 12.010000
21083 ha 16594 TPS HH6 21083 0.1332 1.008000
21084 ca 16594 TPS CA5 21084 -0.1548 12.010000
21085 ha 16594 TPS HA5 21085 0.1282 1.008000
21086 ca 16594 TPS CA4 21086 -0.1028 12.010000
21087 ha 16594 TPS HA4 21087 0.1262 1.008000
21088 ca 16594 TPS CA3 21088 -0.1548 12.010000
21089 ha 16594 TPS HA3 21089 0.1282 1.008000
21090 ha 16595 TPS HA2 21090 0.1332 1.008000
21091 ca 16595 TPS CA2 21091 -0.0753 12.010000
21092 ca 16595 TPS CA1 21092 -0.361 12.010000
21093 si 16595 TPS Si 21093 1.1 28.085000
21094 ca 16595 TPS CA6 21094 -0.0753 12.010000
21095 ha 16595 TPS HH6 21095 0.1332 1.008000
21096 ca 16595 TPS CA5 21096 -0.1548 12.010000
21097 ha 16595 TPS HA5 21097 0.1282 1.008000
21098 ca 16595 TPS CA4 21098 -0.1028 12.010000
21099 ha 16595 TPS HA4 21099 0.1262 1.008000
21100 ca 16595 TPS CA3 21100 -0.1548 12.010000
21101 ha 16595 TPS HA3 21101 0.1282 1.008000
21102 ha 16596 TPS HA2 21102 0.1332 1.008000
21103 ca 16596 TPS CA2 21103 -0.0753 12.010000
21104 ca 16596 TPS CA1 21104 -0.361 12.010000
21105 si 16596 TPS Si 21105 1.1 28.085000
21106 ca 16596 TPS CA6 21106 -0.0753 12.010000
21107 ha 16596 TPS HH6 21107 0.1332 1.008000
21108 ca 16596 TPS CA5 21108 -0.1548 12.010000
21109 ha 16596 TPS HA5 21109 0.1282 1.008000
21110 ca 16596 TPS CA4 21110 -0.1028 12.010000
21111 ha 16596 TPS HA4 21111 0.1262 1.008000
21112 ca 16596 TPS CA3 21112 -0.1548 12.010000
21113 ha 16596 TPS HA3 21113 0.1282 1.008000
21114 ha 16597 TPS HA2 21114 0.1332 1.008000
21115 ca 16597 TPS CA2 21115 -0.0753 12.010000
21116 ca 16597 TPS CA1 21116 -0.361 12.010000
21117 si 16597 TPS Si 21117 1.1 28.085000
21118 ca 16597 TPS CA6 21118 -0.0753 12.010000
21119 ha 16597 TPS HH6 21119 0.1332 1.008000
21120 ca 16597 TPS CA5 21120 -0.1548 12.010000
21121 ha 16597 TPS HA5 21121 0.1282 1.008000
21122 ca 16597 TPS CA4 21122 -0.1028 12.010000
21123 ha 16597 TPS HA4 21123 0.1262 1.008000
21124 ca 16597 TPS CA3 21124 -0.1548 12.010000
21125 ha 16597 TPS HA3 21125 0.1282 1.008000
21126 ha 16598 TPS HA2 21126 0.1332 1.008000
21127 ca 16598 TPS CA2 21127 -0.0753 12.010000
21128 ca 16598 TPS CA1 21128 -0.361 12.010000
21129 si 16598 TPS Si 21129 1.1 28.085000
21130 ca 16598 TPS CA6 21130 -0.0753 12.010000
21131 ha 16598 TPS HH6 21131 0.1332 1.008000
21132 ca 16598 TPS CA5 21132 -0.1548 12.010000
21133 ha 16598 TPS HA5 21133 0.1282 1.008000
21134 ca 16598 TPS CA4 21134 -0.1028 12.010000
21135 ha 16598 TPS HA4 21135 0.1262 1.008000
21136 ca 16598 TPS CA3 21136 -0.1548 12.010000
21137 ha 16598 TPS HA3 21137 0.1282 1.008000
21138 ha 16599 TPS HA2 21138 0.1332 1.008000
21139 ca 16599 TPS CA2 21139 -0.0753 12.010000
21140 ca 16599 TPS CA1 21140 -0.361 12.010000
21141 si 16599 TPS Si 21141 1.1 28.085000
21142 ca 16599 TPS CA6 21142 -0.0753 12.010000
21143 ha 16599 TPS HH6 21143 0.1332 1.008000
21144 ca 16599 TPS CA5 21144 -0.1548 12.010000
21145 ha 16599 TPS HA5 21145 0.1282 1.008000
21146 ca 16599 TPS CA4 21146 -0.1028 12.010000
21147 ha 16599 TPS HA4 21147 0.1262 1.008000
21148 ca 16599 TPS CA3 21148 -0.1548 12.010000
21149 ha 16599 TPS HA3 21149 0.1282 1.008000
21150 ha 16600 TPS HA2 21150 0.1332 1.008000
21151 ca 16600 TPS CA2 21151 -0.0753 12.010000
21152 ca 16600 TPS CA1 21152 -0.361 12.010000
21153 si 16600 TPS Si 21153 1.1 28.085000
21154 ca 16600 TPS CA6 21154 -0.0753 12.010000
21155 ha 16600 TPS HH6 21155 0.1332 1.008000
21156 ca 16600 TPS CA5 21156 -0.1548 12.010000
21157 ha 16600 TPS HA5 21157 0.1282 1.008000
21158 ca 16600 TPS CA4 21158 -0.1028 12.010000
21159 ha 16600 TPS HA4 21159 0.1262 1.008000
21160 ca 16600 TPS CA3 21160 -0.1548 12.010000
21161 ha 16600 TPS HA3 21161 0.1282 1.008000
21162 ha 16601 TPS HA2 21162 0.1332 1.008000
21163 ca 16601 TPS CA2 21163 -0.0753 12.010000
21164 ca 16601 TPS CA1 21164 -0.361 12.010000
21165 si 16601 TPS Si 21165 1.1 28.085000
21166 ca 16601 TPS CA6 21166 -0.0753 12.010000
21167 ha 16601 TPS HH6 21167 0.1332 1.008000
21168 ca 16601 TPS CA5 21168 -0.1548 12.010000
21169 ha 16601 TPS HA5 21169 0.1282 1.008000
21170 ca 16601 TPS CA4 21170 -0.1028 12.010000
21171 ha 16601 TPS HA4 21171 0.1262 1.008000
21172 ca 16601 TPS CA3 21172 -0.1548 12.010000
21173 ha 16601 TPS HA3 21173 0.1282 1.008000
21174 ha 16602 TPS HA2 21174 0.1332 1.008000
21175 ca 16602 TPS CA2 21175 -0.0753 12.010000
21176 ca 16602 TPS CA1 21176 -0.361 12.010000
21177 si 16602 TPS Si 21177 1.1 28.085000
21178 ca 16602 TPS CA6 21178 -0.0753 12.010000
21179 ha 16602 TPS HH6 21179 0.1332 1.008000
21180 ca 16602 TPS CA5 21180 -0.1548 12.010000
21181 ha 16602 TPS HA5 21181 0.1282 1.008000
21182 ca 16602 TPS CA4 21182 -0.1028 12.010000
21183 ha 16602 TPS HA4 21183 0.1262 1.008000
21184 ca 16602 TPS CA3 21184 -0.1548 12.010000
21185 ha 16602 TPS HA3 21185 0.1282 1.008000
21186 ha 16603 TPS HA2 21186 0.1332 1.008000
21187 ca 16603 TPS CA2 21187 -0.0753 12.010000
21188 ca 16603 TPS CA1 21188 -0.361 12.010000
21189 si 16603 TPS Si 21189 1.1 28.085000
21190 ca 16603 TPS CA6 21190 -0.0753 12.010000
21191 ha 16603 TPS HH6 21191 0.1332 1.008000
21192 ca 16603 TPS CA5 21192 -0.1548 12.010000
21193 ha 16603 TPS HA5 21193 0.1282 1.008000
21194 ca 16603 TPS CA4 21194 -0.1028 12.010000
21195 ha 16603 TPS HA4 21195 0.1262 1.008000
21196 ca 16603 TPS CA3 21196 -0.1548 12.010000
21197 ha 16603 TPS HA3 21197 0.1282 1.008000
21198 ha 16604 TPS HA2 21198 0.1332 1.008000
21199 ca 16604 TPS CA2 21199 -0.0753 12.010000
21200 ca 16604 TPS CA1 21200 -0.361 12.010000
21201 si 16604 TPS Si 21201 1.1 28.085000
21202 ca 16604 TPS CA6 21202 -0.0753 12.010000
21203 ha 16604 TPS HH6 21203 0.1332 1.008000
21204 ca 16604 TPS CA5 21204 -0.1548 12.010000
21205 ha 16604 TPS HA5 21205 0.1282 1.008000
21206 ca 16604 TPS CA4 21206 -0.1028 12.010000
21207 ha 16604 TPS HA4 21207 0.1262 1.008000
21208 ca 16604 TPS CA3 21208 -0.1548 12.010000
21209 ha 16604 TPS HA3 21209 0.1282 1.008000
21210 ha 16605 TPS HA2 21210 0.1332 1.008000
21211 ca 16605 TPS CA2 21211 -0.0753 12.010000
21212 ca 16605 TPS CA1 21212 -0.361 12.010000
21213 si 16605 TPS Si 21213 1.1 28.085000
21214 ca 16605 TPS CA6 21214 -0.0753 12.010000
21215 ha 16605 TPS HH6 21215 0.1332 1.008000
21216 ca 16605 TPS CA5 21216 -0.1548 12.010000
21217 ha 16605 TPS HA5 21217 0.1282 1.008000
21218 ca 16605 TPS CA4 21218 -0.1028 12.010000
21219 ha 16605 TPS HA4 21219 0.1262 1.008000
21220 ca 16605 TPS CA3 21220 -0.1548 12.010000
21221 ha 16605 TPS HA3 21221 0.1282 1.008000
21222 ha 16606 TPS HA2 21222 0.1332 1.008000
21223 ca 16606 TPS CA2 21223 -0.0753 12.010000
21224 ca 16606 TPS CA1 21224 -0.361 12.010000
21225 si 16606 TPS Si 21225 1.1 28.085000
21226 ca 16606 TPS CA6 21226 -0.0753 12.010000
21227 ha 16606 TPS HH6 21227 0.1332 1.008000
21228 ca 16606 TPS CA5 21228 -0.1548 12.010000
21229 ha 16606 TPS HA5 21229 0.1282 1.008000
21230 ca 16606 TPS CA4 21230 -0.1028 12.010000
21231 ha 16606 TPS HA4 21231 0.1262 1.008000
21232 ca 16606 TPS CA3 21232 -0.1548 12.010000
21233 ha 16606 TPS HA3 21233 0.1282 1.008000
21234 ha 16607 TPS HA2 21234 0.1332 1.008000
21235 ca 16607 TPS CA2 21235 -0.0753 12.010000
21236 ca 16607 TPS CA1 21236 -0.361 12.010000
21237 si 16607 TPS Si 21237 1.1 28.085000
21238 ca 16607 TPS CA6 21238 -0.0753 12.010000
21239 ha 16607 TPS HH6 21239 0.1332 1.008000
21240 ca 16607 TPS CA5 21240 -0.1548 12.010000
21241 ha 16607 TPS HA5 21241 0.1282 1.008000
21242 ca 16607 TPS CA4 21242 -0.1028 12.010000
21243 ha 16607 TPS HA4 21243 0.1262 1.008000
21244 ca 16607 TPS CA3 21244 -0.1548 12.010000
21245 ha 16607 TPS HA3 21245 0.1282 1.008000
21246 ha 16608 TPS HA2 21246 0.1332 1.008000
21247 ca 16608 TPS CA2 21247 -0.0753 12.010000
21248 ca 16608 TPS CA1 21248 -0.361 12.010000
21249 si 16608 TPS Si 21249 1.1 28.085000
21250 ca 16608 TPS CA6 21250 -0.0753 12.010000
21251 ha 16608 TPS HH6 21251 0.1332 1.008000
21252 ca 16608 TPS CA5 21252 -0.1548 12.010000
21253 ha 16608 TPS HA5 21253 0.1282 1.008000
21254 ca 16608 TPS CA4 21254 -0.1028 12.010000
21255 ha 16608 TPS HA4 21255 0.1262 1.008000
21256 ca 16608 TPS CA3 21256 -0.1548 12.010000
21257 ha 16608 TPS HA3 21257 0.1282 1.008000
21258 ha 16609 TPS HA2 21258 0.1332 1.008000
21259 ca 16609 TPS CA2 21259 -0.0753 12.010000
21260 ca 16609 TPS CA1 21260 -0.361 12.010000
21261 si 16609 TPS Si 21261 1.1 28.085000
21262 ca 16609 TPS CA6 21262 -0.0753 12.010000
21263 ha 16609 TPS HH6 21263 0.1332 1.008000
21264 ca 16609 TPS CA5 21264 -0.1548 12.010000
21265 ha 16609 TPS HA5 21265 0.1282 1.008000
21266 ca 16609 TPS CA4 21266 -0.1028 12.010000
21267 ha 16609 TPS HA4 21267 0.1262 1.008000
21268 ca 16609 TPS CA3 21268 -0.1548 12.010000
21269 ha 16609 TPS HA3 21269 0.1282 1.008000
21270 ha 16610 TPS HA2 21270 0.1332 1.008000
21271 ca 16610 TPS CA2 21271 -0.0753 12.010000
21272 ca 16610 TPS CA1 21272 -0.361 12.010000
21273 si 16610 TPS Si 21273 1.1 28.085000
21274 ca 16610 TPS CA6 21274 -0.0753 12.010000
21275 ha 16610 TPS HH6 21275 0.1332 1.008000
21276 ca 16610 TPS CA5 21276 -0.1548 12.010000
21277 ha 16610 TPS HA5 21277 0.1282 1.008000
21278 ca 16610 TPS CA4 21278 -0.1028 12.010000
21279 ha 16610 TPS HA4 21279 0.1262 1.008000
21280 ca 16610 TPS CA3 21280 -0.1548 12.010000
21281 ha 16610 TPS HA3 21281 0.1282 1.008000
21282 ha 16611 TPS HA2 21282 0.1332 1.008000
21283 ca 16611 TPS CA2 21283 -0.0753 12.010000
21284 ca 16611 TPS CA1 21284 -0.361 12.010000
21285 si 16611 TPS Si 21285 1.1 28.085000
21286 ca 16611 TPS CA6 21286 -0.0753 12.010000
21287 ha 16611 TPS HH6 21287 0.1332 1.008000
21288 ca 16611 TPS CA5 21288 -0.1548 12.010000
21289 ha 16611 TPS HA5 21289 0.1282 1.008000
21290 ca 16611 TPS CA4 21290 -0.1028 12.010000
21291 ha 16611 TPS HA4 21291 0.1262 1.008000
21292 ca 16611 TPS CA3 21292 -0.1548 12.010000
21293 ha 16611 TPS HA3 21293 0.1282 1.008000
21294 ha 16612 TPS HA2 21294 0.1332 1.008000
21295 ca 16612 TPS CA2 21295 -0.0753 12.010000
21296 ca 16612 TPS CA1 21296 -0.361 12.010000
21297 si 16612 TPS Si 21297 1.1 28.085000
21298 ca 16612 TPS CA6 21298 -0.0753 12.010000
21299 ha 16612 TPS HH6 21299 0.1332 1.008000
21300 ca 16612 TPS CA5 21300 -0.1548 12.010000
21301 ha 16612 TPS HA5 21301 0.1282 1.008000
21302 ca 16612 TPS CA4 21302 -0.1028 12.010000
21303 ha 16612 TPS HA4 21303 0.1262 1.008000
21304 ca 16612 TPS CA3 21304 -0.1548 12.010000
21305 ha 16612 TPS HA3 21305 0.1282 1.008000
21306 ha 16613 TPS HA2 21306 0.1332 1.008000
21307 ca 16613 TPS CA2 21307 -0.0753 12.010000
21308 ca 16613 TPS CA1 21308 -0.361 12.010000
21309 si 16613 TPS Si 21309 1.1 28.085000
21310 ca 16613 TPS CA6 21310 -0.0753 12.010000
21311 ha 16613 TPS HH6 21311 0.1332 1.008000
21312 ca 16613 TPS CA5 21312 -0.1548 12.010000
21313 ha 16613 TPS HA5 21313 0.1282 1.008000
21314 ca 16613 TPS CA4 21314 -0.1028 12.010000
21315 ha 16613 TPS HA4 21315 0.1262 1.008000
21316 ca 16613 TPS CA3 21316 -0.1548 12.010000
21317 ha 16613 TPS HA3 21317 0.1282 1.008000
21318 ha 16614 TPS HA2 21318 0.1332 1.008000
21319 ca 16614 TPS CA2 21319 -0.0753 12.010000
21320 ca 16614 TPS CA1 21320 -0.361 12.010000
21321 si 16614 TPS Si 21321 1.1 28.085000
21322 ca 16614 TPS CA6 21322 -0.0753 12.010000
21323 ha 16614 TPS HH6 21323 0.1332 1.008000
21324 ca 16614 TPS CA5 21324 -0.1548 12.010000
21325 ha 16614 TPS HA5 21325 0.1282 1.008000
21326 ca 16614 TPS CA4 21326 -0.1028 12.010000
21327 ha 16614 TPS HA4 21327 0.1262 1.008000
21328 ca 16614 TPS CA3 21328 -0.1548 12.010000
21329 ha 16614 TPS HA3 21329 0.1282 1.008000
21330 ha 16615 TPS HA2 21330 0.1332 1.008000
21331 ca 16615 TPS CA2 21331 -0.0753 12.010000
21332 ca 16615 TPS CA1 21332 -0.361 12.010000
21333 si 16615 TPS Si 21333 1.1 28.085000
21334 ca 16615 TPS CA6 21334 -0.0753 12.010000
21335 ha 16615 TPS HH6 21335 0.1332 1.008000
21336 ca 16615 TPS CA5 21336 -0.1548 12.010000
21337 ha 16615 TPS HA5 21337 0.1282 1.008000
21338 ca 16615 TPS CA4 21338 -0.1028 12.010000
21339 ha 16615 TPS HA4 21339 0.1262 1.008000
21340 ca 16615 TPS CA3 21340 -0.1548 12.010000
21341 ha 16615 TPS HA3 21341 0.1282 1.008000
21342 ha 16616 TPS HA2 21342 0.1332 1.008000
21343 ca 16616 TPS CA2 21343 -0.0753 12.010000
21344 ca 16616 TPS CA1 21344 -0.361 12.010000
21345 si 16616 TPS Si 21345 1.1 28.085000
21346 ca 16616 TPS CA6 21346 -0.0753 12.010000
21347 ha 16616 TPS HH6 21347 0.1332 1.008000
21348 ca 16616 TPS CA5 21348 -0.1548 12.010000
21349 ha 16616 TPS HA5 21349 0.1282 1.008000
21350 ca 16616 TPS CA4 21350 -0.1028 12.010000
21351 ha 16616 TPS HA4 21351 0.1262 1.008000
21352 ca 16616 TPS CA3 21352 -0.1548 12.010000
21353 ha 16616 TPS HA3 21353 0.1282 1.008000
21354 ha 16617 TPS HA2 21354 0.1332 1.008000
21355 ca 16617 TPS CA2 21355 -0.0753 12.010000
21356 ca 16617 TPS CA1 21356 -0.361 12.010000
21357 si 16617 TPS Si 21357 1.1 28.085000
21358 ca 16617 TPS CA6 21358 -0.0753 12.010000
21359 ha 16617 TPS HH6 21359 0.1332 1.008000
21360 ca 16617 TPS CA5 21360 -0.1548 12.010000
21361 ha 16617 TPS HA5 21361 0.1282 1.008000
21362 ca 16617 TPS CA4 21362 -0.1028 12.010000
21363 ha 16617 TPS HA4 21363 0.1262 1.008000
21364 ca 16617 TPS CA3 21364 -0.1548 12.010000
21365 ha 16617 TPS HA3 21365 0.1282 1.008000
21366 ha 16618 TPS HA2 21366 0.1332 1.008000
21367 ca 16618 TPS CA2 21367 -0.0753 12.010000
21368 ca 16618 TPS CA1 21368 -0.361 12.010000
21369 si 16618 TPS Si 21369 1.1 28.085000
21370 ca 16618 TPS CA6 21370 -0.0753 12.010000
21371 ha 16618 TPS HH6 21371 0.1332 1.008000
21372 ca 16618 TPS CA5 21372 -0.1548 12.010000
21373 ha 16618 TPS HA5 21373 0.1282 1.008000
21374 ca 16618 TPS CA4 21374 -0.1028 12.010000
21375 ha 16618 TPS HA4 21375 0.1262 1.008000
21376 ca 16618 TPS CA3 21376 -0.1548 12.010000
21377 ha 16618 TPS HA3 21377 0.1282 1.008000
21378 ha 16619 TPS HA2 21378 0.1332 1.008000
21379 ca 16619 TPS CA2 21379 -0.0753 12.010000
21380 ca 16619 TPS CA1 21380 -0.361 12.010000
21381 si 16619 TPS Si 21381 1.1 28.085000
21382 ca 16619 TPS CA6 21382 -0.0753 12.010000
21383 ha 16619 TPS HH6 21383 0.1332 1.008000
21384 ca 16619 TPS CA5 21384 -0.1548 12.010000
21385 ha 16619 TPS HA5 21385 0.1282 1.008000
21386 ca 16619 TPS CA4 21386 -0.1028 12.010000
21387 ha 16619 TPS HA4 21387 0.1262 1.008000
21388 ca 16619 TPS CA3 21388 -0.1548 12.010000
21389 ha 16619 TPS HA3 21389 0.1282 1.008000
21390 ha 16620 TPS HA2 21390 0.1332 1.008000
21391 ca 16620 TPS CA2 21391 -0.0753 12.010000
21392 ca 16620 TPS CA1 21392 -0.361 12.010000
21393 si 16620 TPS Si 21393 1.1 28.085000
21394 ca 16620 TPS CA6 21394 -0.0753 12.010000
21395 ha 16620 TPS HH6 21395 0.1332 1.008000
21396 ca 16620 TPS CA5 21396 -0.1548 12.010000
21397 ha 16620 TPS HA5 21397 0.1282 1.008000
21398 ca 16620 TPS CA4 21398 -0.1028 12.010000
21399 ha 16620 TPS HA4 21399 0.1262 1.008000
21400 ca 16620 TPS CA3 21400 -0.1548 12.010000
21401 ha 16620 TPS HA3 21401 0.1282 1.008000
21402 ha 16621 TPS HA2 21402 0.1332 1.008000
21403 ca 16621 TPS CA2 21403 -0.0753 12.010000
21404 ca 16621 TPS CA1 21404 -0.361 12.010000
21405 si 16621 TPS Si 21405 1.1 28.085000
21406 ca 16621 TPS CA6 21406 -0.0753 12.010000
21407 ha 16621 TPS HH6 21407 0.1332 1.008000
21408 ca 16621 TPS CA5 21408 -0.1548 12.010000
21409 ha 16621 TPS HA5 21409 0.1282 1.008000
21410 ca 16621 TPS CA4 21410 -0.1028 12.010000
21411 ha 16621 TPS HA4 21411 0.1262 1.008000
21412 ca 16621 TPS CA3 21412 -0.1548 12.010000
21413 ha 16621 TPS HA3 21413 0.1282 1.008000
21414 ha 16622 TPS HA2 21414 0.1332 1.008000
21415 ca 16622 TPS CA2 21415 -0.0753 12.010000
21416 ca 16622 TPS CA1 21416 -0.361 12.010000
21417 si 16622 TPS Si 21417 1.1 28.085000
21418 ca 16622 TPS CA6 21418 -0.0753 12.010000
21419 ha 16622 TPS HH6 21419 0.1332 1.008000
21420 ca 16622 TPS CA5 21420 -0.1548 12.010000
21421 ha 16622 TPS HA5 21421 0.1282 1.008000
21422 ca 16622 TPS CA4 21422 -0.1028 12.010000
21423 ha 16622 TPS HA4 21423 0.1262 1.008000
21424 ca 16622 TPS CA3 21424 -0.1548 12.010000
21425 ha 16622 TPS HA3 21425 0.1282 1.008000
21426 ha 16623 TPS HA2 21426 0.1332 1.008000
21427 ca 16623 TPS CA2 21427 -0.0753 12.010000
21428 ca 16623 TPS CA1 21428 -0.361 12.010000
21429 si 16623 TPS Si 21429 1.1 28.085000
21430 ca 16623 TPS CA6 21430 -0.0753 12.010000
21431 ha 16623 TPS HH6 21431 0.1332 1.008000
21432 ca 16623 TPS CA5 21432 -0.1548 12.010000
21433 ha 16623 TPS HA5 21433 0.1282 1.008000
21434 ca 16623 TPS CA4 21434 -0.1028 12.010000
21435 ha 16623 TPS HA4 21435 0.1262 1.008000
21436 ca 16623 TPS CA3 21436 -0.1548 12.010000
21437 ha 16623 TPS HA3 21437 0.1282 1.008000
21438 ha 16624 TPS HA2 21438 0.1332 1.008000
21439 ca 16624 TPS CA2 21439 -0.0753 12.010000
21440 ca 16624 TPS CA1 21440 -0.361 12.010000
21441 si 16624 TPS Si 21441 1.1 28.085000
21442 ca 16624 TPS CA6 21442 -0.0753 12.010000
21443 ha 16624 TPS HH6 21443 0.1332 1.008000
21444 ca 16624 TPS CA5 21444 -0.1548 12.010000
21445 ha 16624 TPS HA5 21445 0.1282 1.008000
21446 ca 16624 TPS CA4 21446 -0.1028 12.010000
21447 ha 16624 TPS HA4 21447 0.1262 1.008000
21448 ca 16624 TPS CA3 21448 -0.1548 12.010000
21449 ha 16624 TPS HA3 21449 0.1282 1.008000
21450 ha 16625 TPS HA2 21450 0.1332 1.008000
21451 ca 16625 TPS CA2 21451 -0.0753 12.010000
21452 ca 16625 TPS CA1 21452 -0.361 12.010000
21453 si 16625 TPS Si 21453 1.1 28.085000
21454 ca 16625 TPS CA6 21454 -0.0753 12.010000
21455 ha 16625 TPS HH6 21455 0.1332 1.008000
21456 ca 16625 TPS CA5 21456 -0.1548 12.010000
21457 ha 16625 TPS HA5 21457 0.1282 1.008000
21458 ca 16625 TPS CA4 21458 -0.1028 12.010000
21459 ha 16625 TPS HA4 21459 0.1262 1.008000
21460 ca 16625 TPS CA3 21460 -0.1548 12.010000
21461 ha 16625 TPS HA3 21461 0.1282 1.008000
21462 ha 16626 TPS HA2 21462 0.1332 1.008000
21463 ca 16626 TPS CA2 21463 -0.0753 12.010000
21464 ca 16626 TPS CA1 21464 -0.361 12.010000
21465 si 16626 TPS Si 21465 1.1 28.085000
21466 ca 16626 TPS CA6 21466 -0.0753 12.010000
21467 ha 16626 TPS HH6 21467 0.1332 1.008000
21468 ca 16626 TPS CA5 21468 -0.1548 12.010000
21469 ha 16626 TPS HA5 21469 0.1282 1.008000
21470 ca 16626 TPS CA4 21470 -0.1028 12.010000
21471 ha 16626 TPS HA4 21471 0.1262 1.008000
21472 ca 16626 TPS CA3 21472 -0.1548 12.010000
21473 ha 16626 TPS HA3 21473 0.1282 1.008000
21474 ha 16627 TPS HA2 21474 0.1332 1.008000
21475 ca 16627 TPS CA2 21475 -0.0753 12.010000
21476 ca 16627 TPS CA1 21476 -0.361 12.010000
21477 si 16627 TPS Si 21477 1.1 28.085000
21478 ca 16627 TPS CA6 21478 -0.0753 12.010000
21479 ha 16627 TPS HH6 21479 0.1332 1.008000
21480 ca 16627 TPS CA5 21480 -0.1548 12.010000
21481 ha 16627 TPS HA5 21481 0.1282 1.008000
21482 ca 16627 TPS CA4 21482 -0.1028 12.010000
21483 ha 16627 TPS HA4 21483 0.1262 1.008000
21484 ca 16627 TPS CA3 21484 -0.1548 12.010000
21485 ha 16627 TPS HA3 21485 0.1282 1.008000
21486 ha 16628 TPS HA2 21486 0.1332 1.008000
21487 ca 16628 TPS CA2 21487 -0.0753 12.010000
21488 ca 16628 TPS CA1 21488 -0.361 12.010000
21489 si 16628 TPS Si 21489 1.1 28.085000
21490 ca 16628 TPS CA6 21490 -0.0753 12.010000
21491 ha 16628 TPS HH6 21491 0.1332 1.008000
21492 ca 16628 TPS CA5 21492 -0.1548 12.010000
21493 ha 16628 TPS HA5 21493 0.1282 1.008000
21494 ca 16628 TPS CA4 21494 -0.1028 12.010000
21495 ha 16628 TPS HA4 21495 0.1262 1.008000
21496 ca 16628 TPS CA3 21496 -0.1548 12.010000
21497 ha 16628 TPS HA3 21497 0.1282 1.008000
21498 ha 16629 TPS HA2 21498 0.1332 1.008000
21499 ca 16629 TPS CA2 21499 -0.0753 12.010000
21500 ca 16629 TPS CA1 21500 -0.361 12.010000
21501 si 16629 TPS Si 21501 1.1 28.085000
21502 ca 16629 TPS CA6 21502 -0.0753 12.010000
21503 ha 16629 TPS HH6 21503 0.1332 1.008000
21504 ca 16629 TPS CA5 21504 -0.1548 12.010000
21505 ha 16629 TPS HA5 21505 0.1282 1.008000
21506 ca 16629 TPS CA4 21506 -0.1028 12.010000
21507 ha 16629 TPS HA4 21507 0.1262 1.008000
21508 ca 16629 TPS CA3 21508 -0.1548 12.010000
21509 ha 16629 TPS HA3 21509 0.1282 1.008000
21510 ha 16630 TPS HA2 21510 0.1332 1.008000
21511 ca 16630 TPS CA2 21511 -0.0753 12.010000
21512 ca 16630 TPS CA1 21512 -0.361 12.010000
21513 si 16630 TPS Si 21513 1.1 28.085000
21514 ca 16630 TPS CA6 21514 -0.0753 12.010000
21515 ha 16630 TPS HH6 21515 0.1332 1.008000
21516 ca 16630 TPS CA5 21516 -0.1548 12.010000
21517 ha 16630 TPS HA5 21517 0.1282 1.008000
21518 ca 16630 TPS CA4 21518 -0.1028 12.010000
21519 ha 16630 TPS HA4 21519 0.1262 1.008000
21520 ca 16630 TPS CA3 21520 -0.1548 12.010000
21521 ha 16630 TPS HA3 21521 0.1282 1.008000
21522 ha 16631 TPS HA2 21522 0.1332 1.008000
21523 ca 16631 TPS CA2 21523 -0.0753 12.010000
21524 ca 16631 TPS CA1 21524 -0.361 12.010000
21525 si 16631 TPS Si 21525 1.1 28.085000
21526 ca 16631 TPS CA6 21526 -0.0753 12.010000
21527 ha 16631 TPS HH6 21527 0.1332 1.008000
21528 ca 16631 TPS CA5 21528 -0.1548 12.010000
21529 ha 16631 TPS HA5 21529 0.1282 1.008000
21530 ca 16631 TPS CA4 21530 -0.1028 12.010000
21531 ha 16631 TPS HA4 21531 0.1262 1.008000
21532 ca 16631 TPS CA3 21532 -0.1548 12.010000
21533 ha 16631 TPS HA3 21533 0.1282 1.008000
21534 ha 16632 TPS HA2 21534 0.1332 1.008000
21535 ca 16632 TPS CA2 21535 -0.0753 12.010000
21536 ca 16632 TPS CA1 21536 -0.361 12.010000
21537 si 16632 TPS Si 21537 1.1 28.085000
21538 ca 16632 TPS CA6 21538 -0.0753 12.010000
21539 ha 16632 TPS HH6 21539 0.1332 1.008000
21540 ca 16632 TPS CA5 21540 -0.1548 12.010000
21541 ha 16632 TPS HA5 21541 0.1282 1.008000
21542 ca 16632 TPS CA4 21542 -0.1028 12.010000
21543 ha 16632 TPS HA4 21543 0.1262 1.008000
21544 ca 16632 TPS CA3 21544 -0.1548 12.010000
21545 ha 16632 TPS HA3 21545 0.1282 1.008000
21546 ha 16633 TPS HA2 21546 0.1332 1.008000
21547 ca 16633 TPS CA2 21547 -0.0753 12.010000
21548 ca 16633 TPS CA1 21548 -0.361 12.010000
21549 si 16633 TPS Si 21549 1.1 28.085000
21550 ca 16633 TPS CA6 21550 -0.0753 12.010000
21551 ha 16633 TPS HH6 21551 0.1332 1.008000
21552 ca 16633 TPS CA5 21552 -0.1548 12.010000
21553 ha 16633 TPS HA5 21553 0.1282 1.008000
21554 ca 16633 TPS CA4 21554 -0.1028 12.010000
21555 ha 16633 TPS HA4 21555 0.1262 1.008000
21556 ca 16633 TPS CA3 21556 -0.1548 12.010000
21557 ha 16633 TPS HA3 21557 0.1282 1.008000
21558 ha 16634 TPS HA2 21558 0.1332 1.008000
21559 ca 16634 TPS CA2 21559 -0.0753 12.010000
21560 ca 16634 TPS CA1 21560 -0.361 12.010000
21561 si 16634 TPS Si 21561 1.1 28.085000
21562 ca 16634 TPS CA6 21562 -0.0753 12.010000
21563 ha 16634 TPS HH6 21563 0.1332 1.008000
21564 ca 16634 TPS CA5 21564 -0.1548 12.010000
21565 ha 16634 TPS HA5 21565 0.1282 1.008000
21566 ca 16634 TPS CA4 21566 -0.1028 12.010000
21567 ha 16634 TPS HA4 21567 0.1262 1.008000
21568 ca 16634 TPS CA3 21568 -0.1548 12.010000
21569 ha 16634 TPS HA3 21569 0.1282 1.008000
21570 ha 16635 TPS HA2 21570 0.1332 1.008000
21571 ca 16635 TPS CA2 21571 -0.0753 12.010000
21572 ca 16635 TPS CA1 21572 -0.361 12.010000
21573 si 16635 TPS Si 21573 1.1 28.085000
21574 ca 16635 TPS CA6 21574 -0.0753 12.010000
21575 ha 16635 TPS HH6 21575 0.1332 1.008000
21576 ca 16635 TPS CA5 21576 -0.1548 12.010000
21577 ha 16635 TPS HA5 21577 0.1282 1.008000
21578 ca 16635 TPS CA4 21578 -0.1028 12.010000
21579 ha 16635 TPS HA4 21579 0.1262 1.008000
21580 ca 16635 TPS CA3 21580 -0.1548 12.010000
21581 ha 16635 TPS HA3 21581 0.1282 1.008000
21582 ha 16636 TPS HA2 21582 0.1332 1.008000
21583 ca 16636 TPS CA2 21583 -0.0753 12.010000
21584 ca 16636 TPS CA1 21584 -0.361 12.010000
21585 si 16636 TPS Si 21585 1.1 28.085000
21586 ca 16636 TPS CA6 21586 -0.0753 12.010000
21587 ha 16636 TPS HH6 21587 0.1332 1.008000
21588 ca 16636 TPS CA5 21588 -0.1548 12.010000
21589 ha 16636 TPS HA5 21589 0.1282 1.008000
21590 ca 16636 TPS CA4 21590 -0.1028 12.010000
21591 ha 16636 TPS HA4 21591 0.1262 1.008000
21592 ca 16636 TPS CA3 21592 -0.1548 12.010000
21593 ha 16636 TPS HA3 21593 0.1282 1.008000
21594 ha 16637 TPS HA2 21594 0.1332 1.008000
21595 ca 16637 TPS CA2 21595 -0.0753 12.010000
21596 ca 16637 TPS CA1 21596 -0.361 12.010000
21597 si 16637 TPS Si 21597 1.1 28.085000
21598 ca 16637 TPS CA6 21598 -0.0753 12.010000
21599 ha 16637 TPS HH6 21599 0.1332 1.008000
21600 ca 16637 TPS CA5 21600 -0.1548 12.010000
21601 ha 16637 TPS HA5 21601 0.1282 1.008000
21602 ca 16637 TPS CA4 21602 -0.1028 12.010000
21603 ha 16637 TPS HA4 21603 0.1262 1.008000
21604 ca 16637 TPS CA3 21604 -0.1548 12.010000
21605 ha 16637 TPS HA3 21605 0.1282 1.008000
21606 ha 16638 TPS HA2 21606 0.1332 1.008000
21607 ca 16638 TPS CA2 21607 -0.0753 12.010000
21608 ca 16638 TPS CA1 21608 -0.361 12.010000
21609 si 16638 TPS Si 21609 1.1 28.085000
21610 ca 16638 TPS CA6 21610 -0.0753 12.010000
21611 ha 16638 TPS HH6 21611 0.1332 1.008000
21612 ca 16638 TPS CA5 21612 -0.1548 12.010000
21613 ha 16638 TPS HA5 21613 0.1282 1.008000
21614 ca 16638 TPS CA4 21614 -0.1028 12.010000
21615 ha 16638 TPS HA4 21615 0.1262 1.008000
21616 ca 16638 TPS CA3 21616 -0.1548 12.010000
21617 ha 16638 TPS HA3 21617 0.1282 1.008000
21618 ha 16639 TPS HA2 21618 0.1332 1.008000
21619 ca 16639 TPS CA2 21619 -0.0753 12.010000
21620 ca 16639 TPS CA1 21620 -0.361 12.010000
21621 si 16639 TPS Si 21621 1.1 28.085000
21622 ca 16639 TPS CA6 21622 -0.0753 12.010000
21623 ha 16639 TPS HH6 21623 0.1332 1.008000
21624 ca 16639 TPS CA5 21624 -0.1548 12.010000
21625 ha 16639 TPS HA5 21625 0.1282 1.008000
21626 ca 16639 TPS CA4 21626 -0.1028 12.010000
21627 ha 16639 TPS HA4 21627 0.1262 1.008000
21628 ca 16639 TPS CA3 21628 -0.1548 12.010000
21629 ha 16639 TPS HA3 21629 0.1282 1.008000
21630 ha 16640 TPS HA2 21630 0.1332 1.008000
21631 ca 16640 TPS CA2 21631 -0.0753 12.010000
21632 ca 16640 TPS CA1 21632 -0.361 12.010000
21633 si 16640 TPS Si 21633 1.1 28.085000
21634 ca 16640 TPS CA6 21634 -0.0753 12.010000
21635 ha 16640 TPS HH6 21635 0.1332 1.008000
21636 ca 16640 TPS CA5 21636 -0.1548 12.010000
21637 ha 16640 TPS HA5 21637 0.1282 1.008000
21638 ca 16640 TPS CA4 21638 -0.1028 12.010000
21639 ha 16640 TPS HA4 21639 0.1262 1.008000
21640 ca 16640 TPS CA3 21640 -0.1548 12.010000
21641 ha 16640 TPS HA3 21641 0.1282 1.008000
21642 ha 16641 TPS HA2 21642 0.1332 1.008000
21643 ca 16641 TPS CA2 21643 -0.0753 12.010000
21644 ca 16641 TPS CA1 21644 -0.361 12.010000
21645 si 16641 TPS Si 21645 1.1 28.085000
21646 ca 16641 TPS CA6 21646 -0.0753 12.010000
21647 ha 16641 TPS HH6 21647 0.1332 1.008000
21648 ca 16641 TPS CA5 21648 -0.1548 12.010000
21649 ha 16641 TPS HA5 21649 0.1282 1.008000
21650 ca 16641 TPS CA4 21650 -0.1028 12.010000
21651 ha 16641 TPS HA4 21651 0.1262 1.008000
21652 ca 16641 TPS CA3 21652 -0.1548 12.010000
21653 ha 16641 TPS HA3 21653 0.1282 1.008000
21654 ha 16642 TPS HA2 21654 0.1332 1.008000
21655 ca 16642 TPS CA2 21655 -0.0753 12.010000
21656 ca 16642 TPS CA1 21656 -0.361 12.010000
21657 si 16642 TPS Si 21657 1.1 28.085000
21658 ca 16642 TPS CA6 21658 -0.0753 12.010000
21659 ha 16642 TPS HH6 21659 0.1332 1.008000
21660 ca 16642 TPS CA5 21660 -0.1548 12.010000
21661 ha 16642 TPS HA5 21661 0.1282 1.008000
21662 ca 16642 TPS CA4 21662 -0.1028 12.010000
21663 ha 16642 TPS HA4 21663 0.1262 1.008000
21664 ca 16642 TPS CA3 21664 -0.1548 12.010000
21665 ha 16642 TPS HA3 21665 0.1282 1.008000
21666 ha 16643 TPS HA2 21666 0.1332 1.008000
21667 ca 16643 TPS CA2 21667 -0.0753 12.010000
21668 ca 16643 TPS CA1 21668 -0.361 12.010000
21669 si 16643 TPS Si 21669 1.1 28.085000
21670 ca 16643 TPS CA6 21670 -0.0753 12.010000
21671 ha 16643 TPS HH6 21671 0.1332 1.008000
21672 ca 16643 TPS CA5 21672 -0.1548 12.010000
21673 ha 16643 TPS HA5 21673 0.1282 1.008000
21674 ca 16643 TPS CA4 21674 -0.1028 12.010000
21675 ha 16643 TPS HA4 21675 0.1262 1.008000
21676 ca 16643 TPS CA3 21676 -0.1548 12.010000
21677 ha 16643 TPS HA3 21677 0.1282 1.008000
21678 ha 16644 TPS HA2 21678 0.1332 1.008000
21679 ca 16644 TPS CA2 21679 -0.0753 12.010000
21680 ca 16644 TPS CA1 21680 -0.361 12.010000
21681 si 16644 TPS Si 21681 1.1 28.085000
21682 ca 16644 TPS CA6 21682 -0.0753 12.010000
21683 ha 16644 TPS HH6 21683 0.1332 1.008000
21684 ca 16644 TPS CA5 21684 -0.1548 12.010000
21685 ha 16644 TPS HA5 21685 0.1282 1.008000
21686 ca 16644 TPS CA4 21686 -0.1028 12.010000
21687 ha 16644 TPS HA4 21687 0.1262 1.008000
21688 ca 16644 TPS CA3 21688 -0.1548 12.010000
21689 ha 16644 TPS HA3 21689 0.1282 1.008000
21690 ha 16645 TPS HA2 21690 0.1332 1.008000
21691 ca 16645 TPS CA2 21691 -0.0753 12.010000
21692 ca 16645 TPS CA1 21692 -0.361 12.010000
21693 si 16645 TPS Si 21693 1.1 28.085000
21694 ca 16645 TPS CA6 21694 -0.0753 12.010000
21695 ha 16645 TPS HH6 21695 0.1332 1.008000
21696 ca 16645 TPS CA5 21696 -0.1548 12.010000
21697 ha 16645 TPS HA5 21697 0.1282 1.008000
21698 ca 16645 TPS CA4 21698 -0.1028 12.010000
21699 ha 16645 TPS HA4 21699 0.1262 1.008000
21700 ca 16645 TPS CA3 21700 -0.1548 12.010000
21701 ha 16645 TPS HA3 21701 0.1282 1.008000
21702 ha 16646 TPS HA2 21702 0.1332 1.008000
21703 ca 16646 TPS CA2 21703 -0.0753 12.010000
21704 ca 16646 TPS CA1 21704 -0.361 12.010000
21705 si 16646 TPS Si 21705 1.1 28.085000
21706 ca 16646 TPS CA6 21706 -0.0753 12.010000
21707 ha 16646 TPS HH6 21707 0.1332 1.008000
21708 ca 16646 TPS CA5 21708 -0.1548 12.010000
21709 ha 16646 TPS HA5 21709 0.1282 1.008000
21710 ca 16646 TPS CA4 21710 -0.1028 12.010000
21711 ha 16646 TPS HA4 21711 0.1262 1.008000
21712 ca 16646 TPS CA3 21712 -0.1548 12.010000
21713 ha 16646 TPS HA3 21713 0.1282 1.008000
21714 ha 16647 TPS HA2 21714 0.1332 1.008000
21715 ca 16647 TPS CA2 21715 -0.0753 12.010000
21716 ca 16647 TPS CA1 21716 -0.361 12.010000
21717 si 16647 TPS Si 21717 1.1 28.085000
21718 ca 16647 TPS CA6 21718 -0.0753 12.010000
21719 ha 16647 TPS HH6 21719 0.1332 1.008000
21720 ca 16647 TPS CA5 21720 -0.1548 12.010000
21721 ha 16647 TPS HA5 21721 0.1282 1.008000
21722 ca 16647 TPS CA4 21722 -0.1028 12.010000
21723 ha 16647 TPS HA4 21723 0.1262 1.008000
21724 ca 16647 TPS CA3 21724 -0.1548 12.010000
21725 ha 16647 TPS HA3 21725 0.1282 1.008000
21726 ha 16648 TPS HA2 21726 0.1332 1.008000
21727 ca 16648 TPS CA2 21727 -0.0753 12.010000
21728 ca 16648 TPS CA1 21728 -0.361 12.010000
21729 si 16648 TPS Si 21729 1.1 28.085000
21730 ca 16648 TPS CA6 21730 -0.0753 12.010000
21731 ha 16648 TPS HH6 21731 0.1332 1.008000
21732 ca 16648 TPS CA5 21732 -0.1548 12.010000
21733 ha 16648 TPS HA5 21733 0.1282 1.008000
21734 ca 16648 TPS CA4 21734 -0.1028 12.010000
21735 ha 16648 TPS HA4 21735 0.1262 1.008000
21736 ca 16648 TPS CA3 21736 -0.1548 12.010000
21737 ha 16648 TPS HA3 21737 0.1282 1.008000
21738 ha 16649 TPS HA2 21738 0.1332 1.008000
21739 ca 16649 TPS CA2 21739 -0.0753 12.010000
21740 ca 16649 TPS CA1 21740 -0.361 12.010000
21741 si 16649 TPS Si 21741 1.1 28.085000
21742 ca 16649 TPS CA6 21742 -0.0753 12.010000
21743 ha 16649 TPS HH6 21743 0.1332 1.008000
21744 ca 16649 TPS CA5 21744 -0.1548 12.010000
21745 ha 16649 TPS HA5 21745 0.1282 1.008000
21746 ca 16649 TPS CA4 21746 -0.1028 12.010000
21747 ha 16649 TPS HA4 21747 0.1262 1.008000
21748 ca 16649 TPS CA3 21748 -0.1548 12.010000
21749 ha 16649 TPS HA3 21749 0.1282 1.008000
21750 ha 16650 TPS HA2 21750 0.1332 1.008000
21751 ca 16650 TPS CA2 21751 -0.0753 12.010000
21752 ca 16650 TPS CA1 21752 -0.361 12.010000
21753 si 16650 TPS Si 21753 1.1 28.085000
21754 ca 16650 TPS CA6 21754 -0.0753 12.010000
21755 ha 16650 TPS HH6 21755 0.1332 1.008000
21756 ca 16650 TPS CA5 21756 -0.1548 12.010000
21757 ha 16650 TPS HA5 21757 0.1282 1.008000
21758 ca 16650 TPS CA4 21758 -0.1028 12.010000
21759 ha 16650 TPS HA4 21759 0.1262 1.008000
21760 ca 16650 TPS CA3 21760 -0.1548 12.010000
21761 ha 16650 TPS HA3 21761 0.1282 1.008000
21762 ha 16651 TPS HA2 21762 0.1332 1.008000
21763 ca 16651 TPS CA2 21763 -0.0753 12.010000
21764 ca 16651 TPS CA1 21764 -0.361 12.010000
21765 si 16651 TPS Si 21765 1.1 28.085000
21766 ca 16651 TPS CA6 21766 -0.0753 12.010000
21767 ha 16651 TPS HH6 21767 0.1332 1.008000
21768 ca 16651 TPS CA5 21768 -0.1548 12.010000
21769 ha 16651 TPS HA5 21769 0.1282 1.008000
21770 ca 16651 TPS CA4 21770 -0.1028 12.010000
21771 ha 16651 TPS HA4 21771 0.1262 1.008000
21772 ca 16651 TPS CA3 21772 -0.1548 12.010000
21773 ha 16651 TPS HA3 21773 0.1282 1.008000
21774 ha 16652 TPS HA2 21774 0.1332 1.008000
21775 ca 16652 TPS CA2 21775 -0.0753 12.010000
21776 ca 16652 TPS CA1 21776 -0.361 12.010000
21777 si 16652 TPS Si 21777 1.1 28.085000
21778 ca 16652 TPS CA6 21778 -0.0753 12.010000
21779 ha 16652 TPS HH6 21779 0.1332 1.008000
21780 ca 16652 TPS CA5 21780 -0.1548 12.010000
21781 ha 16652 TPS HA5 21781 0.1282 1.008000
21782 ca 16652 TPS CA4 21782 -0.1028 12.010000
21783 ha 16652 TPS HA4 21783 0.1262 1.008000
21784 ca 16652 TPS CA3 21784 -0.1548 12.010000
21785 ha 16652 TPS HA3 21785 0.1282 1.008000
21786 ha 16653 TPS HA2 21786 0.1332 1.008000
21787 ca 16653 TPS CA2 21787 -0.0753 12.010000
21788 ca 16653 TPS CA1 21788 -0.361 12.010000
21789 si 16653 TPS Si 21789 1.1 28.085000
21790 ca 16653 TPS CA6 21790 -0.0753 12.010000
21791 ha 16653 TPS HH6 21791 0.1332 1.008000
21792 ca 16653 TPS CA5 21792 -0.1548 12.010000
21793 ha 16653 TPS HA5 21793 0.1282 1.008000
21794 ca 16653 TPS CA4 21794 -0.1028 12.010000
21795 ha 16653 TPS HA4 21795 0.1262 1.008000
21796 ca 16653 TPS CA3 21796 -0.1548 12.010000
21797 ha 16653 TPS HA3 21797 0.1282 1.008000
21798 ha 16654 TPS HA2 21798 0.1332 1.008000
21799 ca 16654 TPS CA2 21799 -0.0753 12.010000
21800 ca 16654 TPS CA1 21800 -0.361 12.010000
21801 si 16654 TPS Si 21801 1.1 28.085000
21802 ca 16654 TPS CA6 21802 -0.0753 12.010000
21803 ha 16654 TPS HH6 21803 0.1332 1.008000
21804 ca 16654 TPS CA5 21804 -0.1548 12.010000
21805 ha 16654 TPS HA5 21805 0.1282 1.008000
21806 ca 16654 TPS CA4 21806 -0.1028 12.010000
21807 ha 16654 TPS HA4 21807 0.1262 1.008000
21808 ca 16654 TPS CA3 21808 -0.1548 12.010000
21809 ha 16654 TPS HA3 21809 0.1282 1.008000
21810 ha 16655 TPS HA2 21810 0.1332 1.008000
21811 ca 16655 TPS CA2 21811 -0.0753 12.010000
21812 ca 16655 TPS CA1 21812 -0.361 12.010000
21813 si 16655 TPS Si 21813 1.1 28.085000
21814 ca 16655 TPS CA6 21814 -0.0753 12.010000
21815 ha 16655 TPS HH6 21815 0.1332 1.008000
21816 ca 16655 TPS CA5 21816 -0.1548 12.010000
21817 ha 16655 TPS HA5 21817 0.1282 1.008000
21818 ca 16655 TPS CA4 21818 -0.1028 12.010000
21819 ha 16655 TPS HA4 21819 0.1262 1.008000
21820 ca 16655 TPS CA3 21820 -0.1548 12.010000
21821 ha 16655 TPS HA3 21821 0.1282 1.008000
21822 ha 16656 TPS HA2 21822 0.1332 1.008000
21823 ca 16656 TPS CA2 21823 -0.0753 12.010000
21824 ca 16656 TPS CA1 21824 -0.361 12.010000
21825 si 16656 TPS Si 21825 1.1 28.085000
21826 ca 16656 TPS CA6 21826 -0.0753 12.010000
21827 ha 16656 TPS HH6 21827 0.1332 1.008000
21828 ca 16656 TPS CA5 21828 -0.1548 12.010000
21829 ha 16656 TPS HA5 21829 0.1282 1.008000
21830 ca 16656 TPS CA4 21830 -0.1028 12.010000
21831 ha 16656 TPS HA4 21831 0.1262 1.008000
21832 ca 16656 TPS CA3 21832 -0.1548 12.010000
21833 ha 16656 TPS HA3 21833 0.1282 1.008000
21834 ha 16657 TPS HA2 21834 0.1332 1.008000
21835 ca 16657 TPS CA2 21835 -0.0753 12.010000
21836 ca 16657 TPS CA1 21836 -0.361 12.010000
21837 si 16657 TPS Si 21837 1.1 28.085000
21838 ca 16657 TPS CA6 21838 -0.0753 12.010000
21839 ha 16657 TPS HH6 21839 0.1332 1.008000
21840 ca 16657 TPS CA5 21840 -0.1548 12.010000
21841 ha 16657 TPS HA5 21841 0.1282 1.008000
21842 ca 16657 TPS CA4 21842 -0.1028 12.010000
21843 ha 16657 TPS HA4 21843 0.1262 1.008000
21844 ca 16657 TPS CA3 21844 -0.1548 12.010000
21845 ha 16657 TPS HA3 21845 0.1282 1.008000
21846 ha 16658 TPS HA2 21846 0.1332 1.008000
21847 ca 16658 TPS CA2 21847 -0.0753 12.010000
21848 ca 16658 TPS CA1 21848 -0.361 12.010000
21849 si 16658 TPS Si 21849 1.1 28.085000
21850 ca 16658 TPS CA6 21850 -0.0753 12.010000
21851 ha 16658 TPS HH6 21851 0.1332 1.008000
21852 ca 16658 TPS CA5 21852 -0.1548 12.010000
21853 ha 16658 TPS HA5 21853 0.1282 1.008000
21854 ca 16658 TPS CA4 21854 -0.1028 12.010000
21855 ha 16658 TPS HA4 21855 0.1262 1.008000
21856 ca 16658 TPS CA3 21856 -0.1548 12.010000
21857 ha 16658 TPS HA3 21857 0.1282 1.008000
21858 ha 16659 TPS HA2 21858 0.1332 1.008000
21859 ca 16659 TPS CA2 21859 -0.0753 12.010000
21860 ca 16659 TPS CA1 21860 -0.361 12.010000
21861 si 16659 TPS Si 21861 1.1 28.085000
21862 ca 16659 TPS CA6 21862 -0.0753 12.010000
21863 ha 16659 TPS HH6 21863 0.1332 1.008000
21864 ca 16659 TPS CA5 21864 -0.1548 12.010000
21865 ha 16659 TPS HA5 21865 0.1282 1.008000
21866 ca 16659 TPS CA4 21866 -0.1028 12.010000
21867 ha 16659 TPS HA4 21867 0.1262 1.008000
21868 ca 16659 TPS CA3 21868 -0.1548 12.010000
21869 ha 16659 TPS HA3 21869 0.1282 1.008000
21870 ha 16660 TPS HA2 21870 0.1332 1.008000
21871 ca 16660 TPS CA2 21871 -0.0753 12.010000
21872 ca 16660 TPS CA1 21872 -0.361 12.010000
21873 si 16660 TPS Si 21873 1.1 28.085000
21874 ca 16660 TPS CA6 21874 -0.0753 12.010000
21875 ha 16660 TPS HH6 21875 0.1332 1.008000
21876 ca 16660 TPS CA5 21876 -0.1548 12.010000
21877 ha 16660 TPS HA5 21877 0.1282 1.008000
21878 ca 16660 TPS CA4 21878 -0.1028 12.010000
21879 ha 16660 TPS HA4 21879 0.1262 1.008000
21880 ca 16660 TPS CA3 21880 -0.1548 12.010000
21881 ha 16660 TPS HA3 21881 0.1282 1.008000
21882 ha 16661 TPS HA2 21882 0.1332 1.008000
21883 ca 16661 TPS CA2 21883 -0.0753 12.010000
21884 ca 16661 TPS CA1 21884 -0.361 12.010000
21885 si 16661 TPS Si 21885 1.1 28.085000
21886 ca 16661 TPS CA6 21886 -0.0753 12.010000
21887 ha 16661 TPS HH6 21887 0.1332 1.008000
21888 ca 16661 TPS CA5 21888 -0.1548 12.010000
21889 ha 16661 TPS HA5 21889 0.1282 1.008000
21890 ca 16661 TPS CA4 21890 -0.1028 12.010000
21891 ha 16661 TPS HA4 21891 0.1262 1.008000
21892 ca 16661 TPS CA3 21892 -0.1548 12.010000
21893 ha 16661 TPS HA3 21893 0.1282 1.008000
21894 ha 16662 TPS HA2 21894 0.1332 1.008000
21895 ca 16662 TPS CA2 21895 -0.0753 12.010000
21896 ca 16662 TPS CA1 21896 -0.361 12.010000
21897 si 16662 TPS Si 21897 1.1 28.085000
21898 ca 16662 TPS CA6 21898 -0.0753 12.010000
21899 ha 16662 TPS HH6 21899 0.1332 1.008000
21900 ca 16662 TPS CA5 21900 -0.1548 12.010000
21901 ha 16662 TPS HA5 21901 0.1282 1.008000
21902 ca 16662 TPS CA4 21902 -0.1028 12.010000
21903 ha 16662 TPS HA4 21903 0.1262 1.008000
21904 ca 16662 TPS CA3 21904 -0.1548 12.010000
21905 ha 16662 TPS HA3 21905 0.1282 1.008000
21906 ha 16663 TPS HA2 21906 0.1332 1.008000
21907 ca 16663 TPS CA2 21907 -0.0753 12.010000
21908 ca 16663 TPS CA1 21908 -0.361 12.010000
21909 si 16663 TPS Si 21909 1.1 28.085000
21910 ca 16663 TPS CA6 21910 -0.0753 12.010000
21911 ha 16663 TPS HH6 21911 0.1332 1.008000
21912 ca 16663 TPS CA5 21912 -0.1548 12.010000
21913 ha 16663 TPS HA5 21913 0.1282 1.008000
21914 ca 16663 TPS CA4 21914 -0.1028 12.010000
21915 ha 16663 TPS HA4 21915 0.1262 1.008000
21916 ca 16663 TPS CA3 21916 -0.1548 12.010000
21917 ha 16663 TPS HA3 21917 0.1282 1.008000
21918 ha 16664 TPS HA2 21918 0.1332 1.008000
21919 ca 16664 TPS CA2 21919 -0.0753 12.010000
21920 ca 16664 TPS CA1 21920 -0.361 12.010000
21921 si 16664 TPS Si 21921 1.1 28.085000
21922 ca 16664 TPS CA6 21922 -0.0753 12.010000
21923 ha 16664 TPS HH6 21923 0.1332 1.008000
21924 ca 16664 TPS CA5 21924 -0.1548 12.010000
21925 ha 16664 TPS HA5 21925 0.1282 1.008000
21926 ca 16664 TPS CA4 21926 -0.1028 12.010000
21927 ha 16664 TPS HA4 21927 0.1262 1.008000
21928 ca 16664 TPS CA3 21928 -0.1548 12.010000
21929 ha 16664 TPS HA3 21929 0.1282 1.008000
21930 ha 16665 TPS HA2 21930 0.1332 1.008000
21931 ca 16665 TPS CA2 21931 -0.0753 12.010000
21932 ca 16665 TPS CA1 21932 -0.361 12.010000
21933 si 16665 TPS Si 21933 1.1 28.085000
21934 ca 16665 TPS CA6 21934 -0.0753 12.010000
21935 ha 16665 TPS HH6 21935 0.1332 1.008000
21936 ca 16665 TPS CA5 21936 -0.1548 12.010000
21937 ha 16665 TPS HA5 21937 0.1282 1.008000
21938 ca 16665 TPS CA4 21938 -0.1028 12.010000
21939 ha 16665 TPS HA4 21939 0.1262 1.008000
21940 ca 16665 TPS CA3 21940 -0.1548 12.010000
21941 ha 16665 TPS HA3 21941 0.1282 1.008000
21942 ha 16666 TPS HA2 21942 0.1332 1.008000
21943 ca 16666 TPS CA2 21943 -0.0753 12.010000
21944 ca 16666 TPS CA1 21944 -0.361 12.010000
21945 si 16666 TPS Si 21945 1.1 28.085000
21946 ca 16666 TPS CA6 21946 -0.0753 12.010000
21947 ha 16666 TPS HH6 21947 0.1332 1.008000
21948 ca 16666 TPS CA5 21948 -0.1548 12.010000
21949 ha 16666 TPS HA5 21949 0.1282 1.008000
21950 ca 16666 TPS CA4 21950 -0.1028 12.010000
21951 ha 16666 TPS HA4 21951 0.1262 1.008000
21952 ca 16666 TPS CA3 21952 -0.1548 12.010000
21953 ha 16666 TPS HA3 21953 0.1282 1.008000
21954 ha 16667 TPS HA2 21954 0.1332 1.008000
21955 ca 16667 TPS CA2 21955 -0.0753 12.010000
21956 ca 16667 TPS CA1 21956 -0.361 12.010000
21957 si 16667 TPS Si 21957 1.1 28.085000
21958 ca 16667 TPS CA6 21958 -0.0753 12.010000
21959 ha 16667 TPS HH6 21959 0.1332 1.008000
21960 ca 16667 TPS CA5 21960 -0.1548 12.010000
21961 ha 16667 TPS HA5 21961 0.1282 1.008000
21962 ca 16667 TPS CA4 21962 -0.1028 12.010000
21963 ha 16667 TPS HA4 21963 0.1262 1.008000
21964 ca 16667 TPS CA3 21964 -0.1548 12.010000
21965 ha 16667 TPS HA3 21965 0.1282 1.008000
21966 ha 16668 TPS HA2 21966 0.1332 1.008000
21967 ca 16668 TPS CA2 21967 -0.0753 12.010000
21968 ca 16668 TPS CA1 21968 -0.361 12.010000
21969 si 16668 TPS Si 21969 1.1 28.085000
21970 ca 16668 TPS CA6 21970 -0.0753 12.010000
21971 ha 16668 TPS HH6 21971 0.1332 1.008000
21972 ca 16668 TPS CA5 21972 -0.1548 12.010000
21973 ha 16668 TPS HA5 21973 0.1282 1.008000
21974 ca 16668 TPS CA4 21974 -0.1028 12.010000
21975 ha 16668 TPS HA4 21975 0.1262 1.008000
21976 ca 16668 TPS CA3 21976 -0.1548 12.010000
21977 ha 16668 TPS HA3 21977 0.1282 1.008000
21978 ha 16669 TPS HA2 21978 0.1332 1.008000
21979 ca 16669 TPS CA2 21979 -0.0753 12.010000
21980 ca 16669 TPS CA1 21980 -0.361 12.010000
21981 si 16669 TPS Si 21981 1.1 28.085000
21982 ca 16669 TPS CA6 21982 -0.0753 12.010000
21983 ha 16669 TPS HH6 21983 0.1332 1.008000
21984 ca 16669 TPS CA5 21984 -0.1548 12.010000
21985 ha 16669 TPS HA5 21985 0.1282 1.008000
21986 ca 16669 TPS CA4 21986 -0.1028 12.010000
21987 ha 16669 TPS HA4 21987 0.1262 1.008000
21988 ca 16669 TPS CA3 21988 -0.1548 12.010000
21989 ha 16669 TPS HA3 21989 0.1282 1.008000
21990 ha 16670 TPS HA2 21990 0.1332 1.008000
21991 ca 16670 TPS CA2 21991 -0.0753 12.010000
21992 ca 16670 TPS CA1 21992 -0.361 12.010000
21993 si 16670 TPS Si 21993 1.1 28.085000
21994 ca 16670 TPS CA6 21994 -0.0753 12.010000
21995 ha 16670 TPS HH6 21995 0.1332 1.008000
21996 ca 16670 TPS CA5 21996 -0.1548 12.010000
21997 ha 16670 TPS HA5 21997 0.1282 1.008000
21998 ca 16670 TPS CA4 21998 -0.1028 12.010000
21999 ha 16670 TPS HA4 21999 0.1262 1.008000
22000 ca 16670 TPS CA3 22000 -0.1548 12.010000
22001 ha 16670 TPS HA3 22001 0.1282 1.008000
22002 ha 16671 TPS HA2 22002 0.1332 1.008000
22003 ca 16671 TPS CA2 22003 -0.0753 12.010000
22004 ca 16671 TPS CA1 22004 -0.361 12.010000
22005 si 16671 TPS Si 22005 1.1 28.085000
22006 ca 16671 TPS CA6 22006 -0.0753 12.010000
22007 ha 16671 TPS HH6 22007 0.1332 1.008000
22008 ca 16671 TPS CA5 22008 -0.1548 12.010000
22009 ha 16671 TPS HA5 22009 0.1282 1.008000
22010 ca 16671 TPS CA4 22010 -0.1028 12.010000
22011 ha 16671 TPS HA4 22011 0.1262 1.008000
22012 ca 16671 TPS CA3 22012 -0.1548 12.010000
22013 ha 16671 TPS HA3 22013 0.1282 1.008000
22014 ha 16672 TPS HA2 22014 0.1332 1.008000
22015 ca 16672 TPS CA2 22015 -0.0753 12.010000
22016 ca 16672 TPS CA1 22016 -0.361 12.010000
22017 si 16672 TPS Si 22017 1.1 28.085000
22018 ca 16672 TPS CA6 22018 -0.0753 12.010000
22019 ha 16672 TPS HH6 22019 0.1332 1.008000
22020 ca 16672 TPS CA5 22020 -0.1548 12.010000
22021 ha 16672 TPS HA5 22021 0.1282 1.008000
22022 ca 16672 TPS CA4 22022 -0.1028 12.010000
22023 ha 16672 TPS HA4 22023 0.1262 1.008000
22024 ca 16672 TPS CA3 22024 -0.1548 12.010000
22025 ha 16672 TPS HA3 22025 0.1282 1.008000
22026 ha 16673 TPS HA2 22026 0.1332 1.008000
22027 ca 16673 TPS CA2 22027 -0.0753 12.010000
22028 ca 16673 TPS CA1 22028 -0.361 12.010000
22029 si 16673 TPS Si 22029 1.1 28.085000
22030 ca 16673 TPS CA6 22030 -0.0753 12.010000
22031 ha 16673 TPS HH6 22031 0.1332 1.008000
22032 ca 16673 TPS CA5 22032 -0.1548 12.010000
22033 ha 16673 TPS HA5 22033 0.1282 1.008000
22034 ca 16673 TPS CA4 22034 -0.1028 12.010000
22035 ha 16673 TPS HA4 22035 0.1262 1.008000
22036 ca 16673 TPS CA3 22036 -0.1548 12.010000
22037 ha 16673 TPS HA3 22037 0.1282 1.008000
22038 ha 16674 TPS HA2 22038 0.1332 1.008000
22039 ca 16674 TPS CA2 22039 -0.0753 12.010000
22040 ca 16674 TPS CA1 22040 -0.361 12.010000
22041 si 16674 TPS Si 22041 1.1 28.085000
22042 ca 16674 TPS CA6 22042 -0.0753 12.010000
22043 ha 16674 TPS HH6 22043 0.1332 1.008000
22044 ca 16674 TPS CA5 22044 -0.1548 12.010000
22045 ha 16674 TPS HA5 22045 0.1282 1.008000
22046 ca 16674 TPS CA4 22046 -0.1028 12.010000
22047 ha 16674 TPS HA4 22047 0.1262 1.008000
22048 ca 16674 TPS CA3 22048 -0.1548 12.010000
22049 ha 16674 TPS HA3 22049 0.1282 1.008000
22050 ha 16675 TPS HA2 22050 0.1332 1.008000
22051 ca 16675 TPS CA2 22051 -0.0753 12.010000
22052 ca 16675 TPS CA1 22052 -0.361 12.010000
22053 si 16675 TPS Si 22053 1.1 28.085000
22054 ca 16675 TPS CA6 22054 -0.0753 12.010000
22055 ha 16675 TPS HH6 22055 0.1332 1.008000
22056 ca 16675 TPS CA5 22056 -0.1548 12.010000
22057 ha 16675 TPS HA5 22057 0.1282 1.008000
22058 ca 16675 TPS CA4 22058 -0.1028 12.010000
22059 ha 16675 TPS HA4 22059 0.1262 1.008000
22060 ca 16675 TPS CA3 22060 -0.1548 12.010000
22061 ha 16675 TPS HA3 22061 0.1282 1.008000
22062 ha 16676 TPS HA2 22062 0.1332 1.008000
22063 ca 16676 TPS CA2 22063 -0.0753 12.010000
22064 ca 16676 TPS CA1 22064 -0.361 12.010000
22065 si 16676 TPS Si 22065 1.1 28.085000
22066 ca 16676 TPS CA6 22066 -0.0753 12.010000
22067 ha 16676 TPS HH6 22067 0.1332 1.008000
22068 ca 16676 TPS CA5 22068 -0.1548 12.010000
22069 ha 16676 TPS HA5 22069 0.1282 1.008000
22070 ca 16676 TPS CA4 22070 -0.1028 12.010000
22071 ha 16676 TPS HA4 22071 0.1262 1.008000
22072 ca 16676 TPS CA3 22072 -0.1548 12.010000
22073 ha 16676 TPS HA3 22073 0.1282 1.008000
22074 ha 16677 TPS HA2 22074 0.1332 1.008000
22075 ca 16677 TPS CA2 22075 -0.0753 12.010000
22076 ca 16677 TPS CA1 22076 -0.361 12.010000
22077 si 16677 TPS Si 22077 1.1 28.085000
22078 ca 16677 TPS CA6 22078 -0.0753 12.010000
22079 ha 16677 TPS HH6 22079 0.1332 1.008000
22080 ca 16677 TPS CA5 22080 -0.1548 12.010000
22081 ha 16677 TPS HA5 22081 0.1282 1.008000
22082 ca 16677 TPS CA4 22082 -0.1028 12.010000
22083 ha 16677 TPS HA4 22083 0.1262 1.008000
22084 ca 16677 TPS CA3 22084 -0.1548 12.010000
22085 ha 16677 TPS HA3 22085 0.1282 1.008000
22086 ha 16678 TPS HA2 22086 0.1332 1.008000
22087 ca 16678 TPS CA2 22087 -0.0753 12.010000
22088 ca 16678 TPS CA1 22088 -0.361 12.010000
22089 si 16678 TPS Si 22089 1.1 28.085000
22090 ca 16678 TPS CA6 22090 -0.0753 12.010000
22091 ha 16678 TPS HH6 22091 0.1332 1.008000
22092 ca 16678 TPS CA5 22092 -0.1548 12.010000
22093 ha 16678 TPS HA5 22093 0.1282 1.008000
22094 ca 16678 TPS CA4 22094 -0.1028 12.010000
22095 ha 16678 TPS HA4 22095 0.1262 1.008000
22096 ca 16678 TPS CA3 22096 -0.1548 12.010000
22097 ha 16678 TPS HA3 22097 0.1282 1.008000
22098 ha 16679 TPS HA2 22098 0.1332 1.008000
22099 ca 16679 TPS CA2 22099 -0.0753 12.010000
22100 ca 16679 TPS CA1 22100 -0.361 12.010000
22101 si 16679 TPS Si 22101 1.1 28.085000
22102 ca 16679 TPS CA6 22102 -0.0753 12.010000
22103 ha 16679 TPS HH6 22103 0.1332 1.008000
22104 ca 16679 TPS CA5 22104 -0.1548 12.010000
22105 ha 16679 TPS HA5 22105 0.1282 1.008000
22106 ca 16679 TPS CA4 22106 -0.1028 12.010000
22107 ha 16679 TPS HA4 22107 0.1262 1.008000
22108 ca 16679 TPS CA3 22108 -0.1548 12.010000
22109 ha 16679 TPS HA3 22109 0.1282 1.008000
22110 ha 16680 TPS HA2 22110 0.1332 1.008000
22111 ca 16680 TPS CA2 22111 -0.0753 12.010000
22112 ca 16680 TPS CA1 22112 -0.361 12.010000
22113 si 16680 TPS Si 22113 1.1 28.085000
22114 ca 16680 TPS CA6 22114 -0.0753 12.010000
22115 ha 16680 TPS HH6 22115 0.1332 1.008000
22116 ca 16680 TPS CA5 22116 -0.1548 12.010000
22117 ha 16680 TPS HA5 22117 0.1282 1.008000
22118 ca 16680 TPS CA4 22118 -0.1028 12.010000
22119 ha 16680 TPS HA4 22119 0.1262 1.008000
22120 ca 16680 TPS CA3 22120 -0.1548 12.010000
22121 ha 16680 TPS HA3 22121 0.1282 1.008000
22122 ha 16681 TPS HA2 22122 0.1332 1.008000
22123 ca 16681 TPS CA2 22123 -0.0753 12.010000
22124 ca 16681 TPS CA1 22124 -0.361 12.010000
22125 si 16681 TPS Si 22125 1.1 28.085000
22126 ca 16681 TPS CA6 22126 -0.0753 12.010000
22127 ha 16681 TPS HH6 22127 0.1332 1.008000
22128 ca 16681 TPS CA5 22128 -0.1548 12.010000
22129 ha 16681 TPS HA5 22129 0.1282 1.008000
22130 ca 16681 TPS CA4 22130 -0.1028 12.010000
22131 ha 16681 TPS HA4 22131 0.1262 1.008000
22132 ca 16681 TPS CA3 22132 -0.1548 12.010000
22133 ha 16681 TPS HA3 22133 0.1282 1.008000
22134 ha 16682 TPS HA2 22134 0.1332 1.008000
22135 ca 16682 TPS CA2 22135 -0.0753 12.010000
22136 ca 16682 TPS CA1 22136 -0.361 12.010000
22137 si 16682 TPS Si 22137 1.1 28.085000
22138 ca 16682 TPS CA6 22138 -0.0753 12.010000
22139 ha 16682 TPS HH6 22139 0.1332 1.008000
22140 ca 16682 TPS CA5 22140 -0.1548 12.010000
22141 ha 16682 TPS HA5 22141 0.1282 1.008000
22142 ca 16682 TPS CA4 22142 -0.1028 12.010000
22143 ha 16682 TPS HA4 22143 0.1262 1.008000
22144 ca 16682 TPS CA3 22144 -0.1548 12.010000
22145 ha 16682 TPS HA3 22145 0.1282 1.008000
22146 ha 16683 TPS HA2 22146 0.1332 1.008000
22147 ca 16683 TPS CA2 22147 -0.0753 12.010000
22148 ca 16683 TPS CA1 22148 -0.361 12.010000
22149 si 16683 TPS Si 22149 1.1 28.085000
22150 ca 16683 TPS CA6 22150 -0.0753 12.010000
22151 ha 16683 TPS HH6 22151 0.1332 1.008000
22152 ca 16683 TPS CA5 22152 -0.1548 12.010000
22153 ha 16683 TPS HA5 22153 0.1282 1.008000
22154 ca 16683 TPS CA4 22154 -0.1028 12.010000
22155 ha 16683 TPS HA4 22155 0.1262 1.008000
22156 ca 16683 TPS CA3 22156 -0.1548 12.010000
22157 ha 16683 TPS HA3 22157 0.1282 1.008000
22158 ha 16684 TPS HA2 22158 0.1332 1.008000
22159 ca 16684 TPS CA2 22159 -0.0753 12.010000
22160 ca 16684 TPS CA1 22160 -0.361 12.010000
22161 si 16684 TPS Si 22161 1.1 28.085000
22162 ca 16684 TPS CA6 22162 -0.0753 12.010000
22163 ha 16684 TPS HH6 22163 0.1332 1.008000
22164 ca 16684 TPS CA5 22164 -0.1548 12.010000
22165 ha 16684 TPS HA5 22165 0.1282 1.008000
22166 ca 16684 TPS CA4 22166 -0.1028 12.010000
22167 ha 16684 TPS HA4 22167 0.1262 1.008000
22168 ca 16684 TPS CA3 22168 -0.1548 12.010000
22169 ha 16684 TPS HA3 22169 0.1282 1.008000
22170 ha 16685 TPS HA2 22170 0.1332 1.008000
22171 ca 16685 TPS CA2 22171 -0.0753 12.010000
22172 ca 16685 TPS CA1 22172 -0.361 12.010000
22173 si 16685 TPS Si 22173 1.1 28.085000
22174 ca 16685 TPS CA6 22174 -0.0753 12.010000
22175 ha 16685 TPS HH6 22175 0.1332 1.008000
22176 ca 16685 TPS CA5 22176 -0.1548 12.010000
22177 ha 16685 TPS HA5 22177 0.1282 1.008000
22178 ca 16685 TPS CA4 22178 -0.1028 12.010000
22179 ha 16685 TPS HA4 22179 0.1262 1.008000
22180 ca 16685 TPS CA3 22180 -0.1548 12.010000
22181 ha 16685 TPS HA3 22181 0.1282 1.008000
22182 ha 16686 TPS HA2 22182 0.1332 1.008000
22183 ca 16686 TPS CA2 22183 -0.0753 12.010000
22184 ca 16686 TPS CA1 22184 -0.361 12.010000
22185 si 16686 TPS Si 22185 1.1 28.085000
22186 ca 16686 TPS CA6 22186 -0.0753 12.010000
22187 ha 16686 TPS HH6 22187 0.1332 1.008000
22188 ca 16686 TPS CA5 22188 -0.1548 12.010000
22189 ha 16686 TPS HA5 22189 0.1282 1.008000
22190 ca 16686 TPS CA4 22190 -0.1028 12.010000
22191 ha 16686 TPS HA4 22191 0.1262 1.008000
22192 ca 16686 TPS CA3 22192 -0.1548 12.010000
22193 ha 16686 TPS HA3 22193 0.1282 1.008000
22194 ha 16687 TPS HA2 22194 0.1332 1.008000
22195 ca 16687 TPS CA2 22195 -0.0753 12.010000
22196 ca 16687 TPS CA1 22196 -0.361 12.010000
22197 si 16687 TPS Si 22197 1.1 28.085000
22198 ca 16687 TPS CA6 22198 -0.0753 12.010000
22199 ha 16687 TPS HH6 22199 0.1332 1.008000
22200 ca 16687 TPS CA5 22200 -0.1548 12.010000
22201 ha 16687 TPS HA5 22201 0.1282 1.008000
22202 ca 16687 TPS CA4 22202 -0.1028 12.010000
22203 ha 16687 TPS HA4 22203 0.1262 1.008000
22204 ca 16687 TPS CA3 22204 -0.1548 12.010000
22205 ha 16687 TPS HA3 22205 0.1282 1.008000
22206 ha 16688 TPS HA2 22206 0.1332 1.008000
22207 ca 16688 TPS CA2 22207 -0.0753 12.010000
22208 ca 16688 TPS CA1 22208 -0.361 12.010000
22209 si 16688 TPS Si 22209 1.1 28.085000
22210 ca 16688 TPS CA6 22210 -0.0753 12.010000
22211 ha 16688 TPS HH6 22211 0.1332 1.008000
22212 ca 16688 TPS CA5 22212 -0.1548 12.010000
22213 ha 16688 TPS HA5 22213 0.1282 1.008000
22214 ca 16688 TPS CA4 22214 -0.1028 12.010000
22215 ha 16688 TPS HA4 22215 0.1262 1.008000
22216 ca 16688 TPS CA3 22216 -0.1548 12.010000
22217 ha 16688 TPS HA3 22217 0.1282 1.008000
22218 ha 16689 TPS HA2 22218 0.1332 1.008000
22219 ca 16689 TPS CA2 22219 -0.0753 12.010000
22220 ca 16689 TPS CA1 22220 -0.361 12.010000
22221 si 16689 TPS Si 22221 1.1 28.085000
22222 ca 16689 TPS CA6 22222 -0.0753 12.010000
22223 ha 16689 TPS HH6 22223 0.1332 1.008000
22224 ca 16689 TPS CA5 22224 -0.1548 12.010000
22225 ha 16689 TPS HA5 22225 0.1282 1.008000
22226 ca 16689 TPS CA4 22226 -0.1028 12.010000
22227 ha 16689 TPS HA4 22227 0.1262 1.008000
22228 ca 16689 TPS CA3 22228 -0.1548 12.010000
22229 ha 16689 TPS HA3 22229 0.1282 1.008000
22230 ha 16690 TPS HA2 22230 0.1332 1.008000
22231 ca 16690 TPS CA2 22231 -0.0753 12.010000
22232 ca 16690 TPS CA1 22232 -0.361 12.010000
22233 si 16690 TPS Si 22233 1.1 28.085000
22234 ca 16690 TPS CA6 22234 -0.0753 12.010000
22235 ha 16690 TPS HH6 22235 0.1332 1.008000
22236 ca 16690 TPS CA5 22236 -0.1548 12.010000
22237 ha 16690 TPS HA5 22237 0.1282 1.008000
22238 ca 16690 TPS CA4 22238 -0.1028 12.010000
22239 ha 16690 TPS HA4 22239 0.1262 1.008000
22240 ca 16690 TPS CA3 22240 -0.1548 12.010000
22241 ha 16690 TPS HA3 22241 0.1282 1.008000
22242 ha 16691 TPS HA2 22242 0.1332 1.008000
22243 ca 16691 TPS CA2 22243 -0.0753 12.010000
22244 ca 16691 TPS CA1 22244 -0.361 12.010000
22245 si 16691 TPS Si 22245 1.1 28.085000
22246 ca 16691 TPS CA6 22246 -0.0753 12.010000
22247 ha 16691 TPS HH6 22247 0.1332 1.008000
22248 ca 16691 TPS CA5 22248 -0.1548 12.010000
22249 ha 16691 TPS HA5 22249 0.1282 1.008000
22250 ca 16691 TPS CA4 22250 -0.1028 12.010000
22251 ha 16691 TPS HA4 22251 0.1262 1.008000
22252 ca 16691 TPS CA3 22252 -0.1548 12.010000
22253 ha 16691 TPS HA3 22253 0.1282 1.008000
22254 ha 16692 TPS HA2 22254 0.1332 1.008000
22255 ca 16692 TPS CA2 22255 -0.0753 12.010000
22256 ca 16692 TPS CA1 22256 -0.361 12.010000
22257 si 16692 TPS Si 22257 1.1 28.085000
22258 ca 16692 TPS CA6 22258 -0.0753 12.010000
22259 ha 16692 TPS HH6 22259 0.1332 1.008000
22260 ca 16692 TPS CA5 22260 -0.1548 12.010000
22261 ha 16692 TPS HA5 22261 0.1282 1.008000
22262 ca 16692 TPS CA4 22262 -0.1028 12.010000
22263 ha 16692 TPS HA4 22263 0.1262 1.008000
22264 ca 16692 TPS CA3 22264 -0.1548 12.010000
22265 ha 16692 TPS HA3 22265 0.1282 1.008000
22266 ha 16693 TPS HA2 22266 0.1332 1.008000
22267 ca 16693 TPS CA2 22267 -0.0753 12.010000
22268 ca 16693 TPS CA1 22268 -0.361 12.010000
22269 si 16693 TPS Si 22269 1.1 28.085000
22270 ca 16693 TPS CA6 22270 -0.0753 12.010000
22271 ha 16693 TPS HH6 22271 0.1332 1.008000
22272 ca 16693 TPS CA5 22272 -0.1548 12.010000
22273 ha 16693 TPS HA5 22273 0.1282 1.008000
22274 ca 16693 TPS CA4 22274 -0.1028 12.010000
22275 ha 16693 TPS HA4 22275 0.1262 1.008000
22276 ca 16693 TPS CA3 22276 -0.1548 12.010000
22277 ha 16693 TPS HA3 22277 0.1282 1.008000
22278 ha 16694 TPS HA2 22278 0.1332 1.008000
22279 ca 16694 TPS CA2 22279 -0.0753 12.010000
22280 ca 16694 TPS CA1 22280 -0.361 12.010000
22281 si 16694 TPS Si 22281 1.1 28.085000
22282 ca 16694 TPS CA6 22282 -0.0753 12.010000
22283 ha 16694 TPS HH6 22283 0.1332 1.008000
22284 ca 16694 TPS CA5 22284 -0.1548 12.010000
22285 ha 16694 TPS HA5 22285 0.1282 1.008000
22286 ca 16694 TPS CA4 22286 -0.1028 12.010000
22287 ha 16694 TPS HA4 22287 0.1262 1.008000
22288 ca 16694 TPS CA3 22288 -0.1548 12.010000
22289 ha 16694 TPS HA3 22289 0.1282 1.008000
22290 ha 16695 TPS HA2 22290 0.1332 1.008000
22291 ca 16695 TPS CA2 22291 -0.0753 12.010000
22292 ca 16695 TPS CA1 22292 -0.361 12.010000
22293 si 16695 TPS Si 22293 1.1 28.085000
22294 ca 16695 TPS CA6 22294 -0.0753 12.010000
22295 ha 16695 TPS HH6 22295 0.1332 1.008000
22296 ca 16695 TPS CA5 22296 -0.1548 12.010000
22297 ha 16695 TPS HA5 22297 0.1282 1.008000
22298 ca 16695 TPS CA4 22298 -0.1028 12.010000
22299 ha 16695 TPS HA4 22299 0.1262 1.008000
22300 ca 16695 TPS CA3 22300 -0.1548 12.010000
22301 ha 16695 TPS HA3 22301 0.1282 1.008000
22302 ha 16696 TPS HA2 22302 0.1332 1.008000
22303 ca 16696 TPS CA2 22303 -0.0753 12.010000
22304 ca 16696 TPS CA1 22304 -0.361 12.010000
22305 si 16696 TPS Si 22305 1.1 28.085000
22306 ca 16696 TPS CA6 22306 -0.0753 12.010000
22307 ha 16696 TPS HH6 22307 0.1332 1.008000
22308 ca 16696 TPS CA5 22308 -0.1548 12.010000
22309 ha 16696 TPS HA5 22309 0.1282 1.008000
22310 ca 16696 TPS CA4 22310 -0.1028 12.010000
22311 ha 16696 TPS HA4 22311 0.1262 1.008000
22312 ca 16696 TPS CA3 22312 -0.1548 12.010000
22313 ha 16696 TPS HA3 22313 0.1282 1.008000
22314 ha 16697 TPS HA2 22314 0.1332 1.008000
22315 ca 16697 TPS CA2 22315 -0.0753 12.010000
22316 ca 16697 TPS CA1 22316 -0.361 12.010000
22317 si 16697 TPS Si 22317 1.1 28.085000
22318 ca 16697 TPS CA6 22318 -0.0753 12.010000
22319 ha 16697 TPS HH6 22319 0.1332 1.008000
22320 ca 16697 TPS CA5 22320 -0.1548 12.010000
22321 ha 16697 TPS HA5 22321 0.1282 1.008000
22322 ca 16697 TPS CA4 22322 -0.1028 12.010000
22323 ha 16697 TPS HA4 22323 0.1262 1.008000
22324 ca 16697 TPS CA3 22324 -0.1548 12.010000
22325 ha 16697 TPS HA3 22325 0.1282 1.008000
22326 ha 16698 TPS HA2 22326 0.1332 1.008000
22327 ca 16698 TPS CA2 22327 -0.0753 12.010000
22328 ca 16698 TPS CA1 22328 -0.361 12.010000
22329 si 16698 TPS Si 22329 1.1 28.085000
22330 ca 16698 TPS CA6 22330 -0.0753 12.010000
22331 ha 16698 TPS HH6 22331 0.1332 1.008000
22332 ca 16698 TPS CA5 22332 -0.1548 12.010000
22333 ha 16698 TPS HA5 22333 0.1282 1.008000
22334 ca 16698 TPS CA4 22334 -0.1028 12.010000
22335 ha 16698 TPS HA4 22335 0.1262 1.008000
22336 ca 16698 TPS CA3 22336 -0.1548 12.010000
22337 ha 16698 TPS HA3 22337 0.1282 1.008000
22338 ha 16699 TPS HA2 22338 0.1332 1.008000
22339 ca 16699 TPS CA2 22339 -0.0753 12.010000
22340 ca 16699 TPS CA1 22340 -0.361 12.010000
22341 si 16699 TPS Si 22341 1.1 28.085000
22342 ca 16699 TPS CA6 22342 -0.0753 12.010000
22343 ha 16699 TPS HH6 22343 0.1332 1.008000
22344 ca 16699 TPS CA5 22344 -0.1548 12.010000
22345 ha 16699 TPS HA5 22345 0.1282 1.008000
22346 ca 16699 TPS CA4 22346 -0.1028 12.010000
22347 ha 16699 TPS HA4 22347 0.1262 1.008000
22348 ca 16699 TPS CA3 22348 -0.1548 12.010000
22349 ha 16699 TPS HA3 22349 0.1282 1.008000
22350 ha 16700 TPS HA2 22350 0.1332 1.008000
22351 ca 16700 TPS CA2 22351 -0.0753 12.010000
22352 ca 16700 TPS CA1 22352 -0.361 12.010000
22353 si 16700 TPS Si 22353 1.1 28.085000
22354 ca 16700 TPS CA6 22354 -0.0753 12.010000
22355 ha 16700 TPS HH6 22355 0.1332 1.008000
22356 ca 16700 TPS CA5 22356 -0.1548 12.010000
22357 ha 16700 TPS HA5 22357 0.1282 1.008000
22358 ca 16700 TPS CA4 22358 -0.1028 12.010000
22359 ha 16700 TPS HA4 22359 0.1262 1.008000
22360 ca 16700 TPS CA3 22360 -0.1548 12.010000
22361 ha 16700 TPS HA3 22361 0.1282 1.008000
22362 ha 16701 TPS HA2 22362 0.1332 1.008000
22363 ca 16701 TPS CA2 22363 -0.0753 12.010000
22364 ca 16701 TPS CA1 22364 -0.361 12.010000
22365 si 16701 TPS Si 22365 1.1 28.085000
22366 ca 16701 TPS CA6 22366 -0.0753 12.010000
22367 ha 16701 TPS HH6 22367 0.1332 1.008000
22368 ca 16701 TPS CA5 22368 -0.1548 12.010000
22369 ha 16701 TPS HA5 22369 0.1282 1.008000
22370 ca 16701 TPS CA4 22370 -0.1028 12.010000
22371 ha 16701 TPS HA4 22371 0.1262 1.008000
22372 ca 16701 TPS CA3 22372 -0.1548 12.010000
22373 ha 16701 TPS HA3 22373 0.1282 1.008000
22374 ha 16702 TPS HA2 22374 0.1332 1.008000
22375 ca 16702 TPS CA2 22375 -0.0753 12.010000
22376 ca 16702 TPS CA1 22376 -0.361 12.010000
22377 si 16702 TPS Si 22377 1.1 28.085000
22378 ca 16702 TPS CA6 22378 -0.0753 12.010000
22379 ha 16702 TPS HH6 22379 0.1332 1.008000
22380 ca 16702 TPS CA5 22380 -0.1548 12.010000
22381 ha 16702 TPS HA5 22381 0.1282 1.008000
22382 ca 16702 TPS CA4 22382 -0.1028 12.010000
22383 ha 16702 TPS HA4 22383 0.1262 1.008000
22384 ca 16702 TPS CA3 22384 -0.1548 12.010000
22385 ha 16702 TPS HA3 22385 0.1282 1.008000
22386 ha 16703 TPS HA2 22386 0.1332 1.008000
22387 ca 16703 TPS CA2 22387 -0.0753 12.010000
22388 ca 16703 TPS CA1 22388 -0.361 12.010000
22389 si 16703 TPS Si 22389 1.1 28.085000
22390 ca 16703 TPS CA6 22390 -0.0753 12.010000
22391 ha 16703 TPS HH6 22391 0.1332 1.008000
22392 ca 16703 TPS CA5 22392 -0.1548 12.010000
22393 ha 16703 TPS HA5 22393 0.1282 1.008000
22394 ca 16703 TPS CA4 22394 -0.1028 12.010000
22395 ha 16703 TPS HA4 22395 0.1262 1.008000
22396 ca 16703 TPS CA3 22396 -0.1548 12.010000
22397 ha 16703 TPS HA3 22397 0.1282 1.008000
22398 ha 16704 TPS HA2 22398 0.1332 1.008000
22399 ca 16704 TPS CA2 22399 -0.0753 12.010000
22400 ca 16704 TPS CA1 22400 -0.361 12.010000
22401 si 16704 TPS Si 22401 1.1 28.085000
22402 ca 16704 TPS CA6 22402 -0.0753 12.010000
22403 ha 16704 TPS HH6 22403 0.1332 1.008000
22404 ca 16704 TPS CA5 22404 -0.1548 12.010000
22405 ha 16704 TPS HA5 22405 0.1282 1.008000
22406 ca 16704 TPS CA4 22406 -0.1028 12.010000
22407 ha 16704 TPS HA4 22407 0.1262 1.008000
22408 ca 16704 TPS CA3 22408 -0.1548 12.010000
22409 ha 16704 TPS HA3 22409 0.1282 1.008000
22410 ha 16705 TPS HA2 22410 0.1332 1.008000
22411 ca 16705 TPS CA2 22411 -0.0753 12.010000
22412 ca 16705 TPS CA1 22412 -0.361 12.010000
22413 si 16705 TPS Si 22413 1.1 28.085000
22414 ca 16705 TPS CA6 22414 -0.0753 12.010000
22415 ha 16705 TPS HH6 22415 0.1332 1.008000
22416 ca 16705 TPS CA5 22416 -0.1548 12.010000
22417 ha 16705 TPS HA5 22417 0.1282 1.008000
22418 ca 16705 TPS CA4 22418 -0.1028 12.010000
22419 ha 16705 TPS HA4 22419 0.1262 1.008000
22420 ca 16705 TPS CA3 22420 -0.1548 12.010000
22421 ha 16705 TPS HA3 22421 0.1282 1.008000
22422 ha 16706 TPS HA2 22422 0.1332 1.008000
22423 ca 16706 TPS CA2 22423 -0.0753 12.010000
22424 ca 16706 TPS CA1 22424 -0.361 12.010000
22425 si 16706 TPS Si 22425 1.1 28.085000
22426 ca 16706 TPS CA6 22426 -0.0753 12.010000
22427 ha 16706 TPS HH6 22427 0.1332 1.008000
22428 ca 16706 TPS CA5 22428 -0.1548 12.010000
22429 ha 16706 TPS HA5 22429 0.1282 1.008000
22430 ca 16706 TPS CA4 22430 -0.1028 12.010000
22431 ha 16706 TPS HA4 22431 0.1262 1.008000
22432 ca 16706 TPS CA3 22432 -0.1548 12.010000
22433 ha 16706 TPS HA3 22433 0.1282 1.008000
22434 ha 16707 TPS HA2 22434 0.1332 1.008000
22435 ca 16707 TPS CA2 22435 -0.0753 12.010000
22436 ca 16707 TPS CA1 22436 -0.361 12.010000
22437 si 16707 TPS Si 22437 1.1 28.085000
22438 ca 16707 TPS CA6 22438 -0.0753 12.010000
22439 ha 16707 TPS HH6 22439 0.1332 1.008000
22440 ca 16707 TPS CA5 22440 -0.1548 12.010000
22441 ha 16707 TPS HA5 22441 0.1282 1.008000
22442 ca 16707 TPS CA4 22442 -0.1028 12.010000
22443 ha 16707 TPS HA4 22443 0.1262 1.008000
22444 ca 16707 TPS CA3 22444 -0.1548 12.010000
22445 ha 16707 TPS HA3 22445 0.1282 1.008000
22446 ha 16708 TPS HA2 22446 0.1332 1.008000
22447 ca 16708 TPS CA2 22447 -0.0753 12.010000
22448 ca 16708 TPS CA1 22448 -0.361 12.010000
22449 si 16708 TPS Si 22449 1.1 28.085000
22450 ca 16708 TPS CA6 22450 -0.0753 12.010000
22451 ha 16708 TPS HH6 22451 0.1332 1.008000
22452 ca 16708 TPS CA5 22452 -0.1548 12.010000
22453 ha 16708 TPS HA5 22453 0.1282 1.008000
22454 ca 16708 TPS CA4 22454 -0.1028 12.010000
22455 ha 16708 TPS HA4 22455 0.1262 1.008000
22456 ca 16708 TPS CA3 22456 -0.1548 12.010000
22457 ha 16708 TPS HA3 22457 0.1282 1.008000
22458 ha 16709 TPS HA2 22458 0.1332 1.008000
22459 ca 16709 TPS CA2 22459 -0.0753 12.010000
22460 ca 16709 TPS CA1 22460 -0.361 12.010000
22461 si 16709 TPS Si 22461 1.1 28.085000
22462 ca 16709 TPS CA6 22462 -0.0753 12.010000
22463 ha 16709 TPS HH6 22463 0.1332 1.008000
22464 ca 16709 TPS CA5 22464 -0.1548 12.010000
22465 ha 16709 TPS HA5 22465 0.1282 1.008000
22466 ca 16709 TPS CA4 22466 -0.1028 12.010000
22467 ha 16709 TPS HA4 22467 0.1262 1.008000
22468 ca 16709 TPS CA3 22468 -0.1548 12.010000
22469 ha 16709 TPS HA3 22469 0.1282 1.008000
22470 ha 16710 TPS HA2 22470 0.1332 1.008000
22471 ca 16710 TPS CA2 22471 -0.0753 12.010000
22472 ca 16710 TPS CA1 22472 -0.361 12.010000
22473 si 16710 TPS Si 22473 1.1 28.085000
22474 ca 16710 TPS CA6 22474 -0.0753 12.010000
22475 ha 16710 TPS HH6 22475 0.1332 1.008000
22476 ca 16710 TPS CA5 22476 -0.1548 12.010000
22477 ha 16710 TPS HA5 22477 0.1282 1.008000
22478 ca 16710 TPS CA4 22478 -0.1028 12.010000
22479 ha 16710 TPS HA4 22479 0.1262 1.008000
22480 ca 16710 TPS CA3 22480 -0.1548 12.010000
22481 ha 16710 TPS HA3 22481 0.1282 1.008000
22482 ha 16711 TPS HA2 22482 0.1332 1.008000
22483 ca 16711 TPS CA2 22483 -0.0753 12.010000
22484 ca 16711 TPS CA1 22484 -0.361 12.010000
22485 si 16711 TPS Si 22485 1.1 28.085000
22486 ca 16711 TPS CA6 22486 -0.0753 12.010000
22487 ha 16711 TPS HH6 22487 0.1332 1.008000
22488 ca 16711 TPS CA5 22488 -0.1548 12.010000
22489 ha 16711 TPS HA5 22489 0.1282 1.008000
22490 ca 16711 TPS CA4 22490 -0.1028 12.010000
22491 ha 16711 TPS HA4 22491 0.1262 1.008000
22492 ca 16711 TPS CA3 22492 -0.1548 12.010000
22493 ha 16711 TPS HA3 22493 0.1282 1.008000
22494 ha 16712 TPS HA2 22494 0.1332 1.008000
22495 ca 16712 TPS CA2 22495 -0.0753 12.010000
22496 ca 16712 TPS CA1 22496 -0.361 12.010000
22497 si 16712 TPS Si 22497 1.1 28.085000
22498 ca 16712 TPS CA6 22498 -0.0753 12.010000
22499 ha 16712 TPS HH6 22499 0.1332 1.008000
22500 ca 16712 TPS CA5 22500 -0.1548 12.010000
22501 ha 16712 TPS HA5 22501 0.1282 1.008000
22502 ca 16712 TPS CA4 22502 -0.1028 12.010000
22503 ha 16712 TPS HA4 22503 0.1262 1.008000
22504 ca 16712 TPS CA3 22504 -0.1548 12.010000
22505 ha 16712 TPS HA3 22505 0.1282 1.008000
22506 ha 16713 TPS HA2 22506 0.1332 1.008000
22507 ca 16713 TPS CA2 22507 -0.0753 12.010000
22508 ca 16713 TPS CA1 22508 -0.361 12.010000
22509 si 16713 TPS Si 22509 1.1 28.085000
22510 ca 16713 TPS CA6 22510 -0.0753 12.010000
22511 ha 16713 TPS HH6 22511 0.1332 1.008000
22512 ca 16713 TPS CA5 22512 -0.1548 12.010000
22513 ha 16713 TPS HA5 22513 0.1282 1.008000
22514 ca 16713 TPS CA4 22514 -0.1028 12.010000
22515 ha 16713 TPS HA4 22515 0.1262 1.008000
22516 ca 16713 TPS CA3 22516 -0.1548 12.010000
22517 ha 16713 TPS HA3 22517 0.1282 1.008000
22518 ha 16714 TPS HA2 22518 0.1332 1.008000
22519 ca 16714 TPS CA2 22519 -0.0753 12.010000
22520 ca 16714 TPS CA1 22520 -0.361 12.010000
22521 si 16714 TPS Si 22521 1.1 28.085000
22522 ca 16714 TPS CA6 22522 -0.0753 12.010000
22523 ha 16714 TPS HH6 22523 0.1332 1.008000
22524 ca 16714 TPS CA5 22524 -0.1548 12.010000
22525 ha 16714 TPS HA5 22525 0.1282 1.008000
22526 ca 16714 TPS CA4 22526 -0.1028 12.010000
22527 ha 16714 TPS HA4 22527 0.1262 1.008000
22528 ca 16714 TPS CA3 22528 -0.1548 12.010000
22529 ha 16714 TPS HA3 22529 0.1282 1.008000
22530 ha 16715 TPS HA2 22530 0.1332 1.008000
22531 ca 16715 TPS CA2 22531 -0.0753 12.010000
22532 ca 16715 TPS CA1 22532 -0.361 12.010000
22533 si 16715 TPS Si 22533 1.1 28.085000
22534 ca 16715 TPS CA6 22534 -0.0753 12.010000
22535 ha 16715 TPS HH6 22535 0.1332 1.008000
22536 ca 16715 TPS CA5 22536 -0.1548 12.010000
22537 ha 16715 TPS HA5 22537 0.1282 1.008000
22538 ca 16715 TPS CA4 22538 -0.1028 12.010000
22539 ha 16715 TPS HA4 22539 0.1262 1.008000
22540 ca 16715 TPS CA3 22540 -0.1548 12.010000
22541 ha 16715 TPS HA3 22541 0.1282 1.008000
22542 ha 16716 TPS HA2 22542 0.1332 1.008000
22543 ca 16716 TPS CA2 22543 -0.0753 12.010000
22544 ca 16716 TPS CA1 22544 -0.361 12.010000
22545 si 16716 TPS Si 22545 1.1 28.085000
22546 ca 16716 TPS CA6 22546 -0.0753 12.010000
22547 ha 16716 TPS HH6 22547 0.1332 1.008000
22548 ca 16716 TPS CA5 22548 -0.1548 12.010000
22549 ha 16716 TPS HA5 22549 0.1282 1.008000
22550 ca 16716 TPS CA4 22550 -0.1028 12.010000
22551 ha 16716 TPS HA4 22551 0.1262 1.008000
22552 ca 16716 TPS CA3 22552 -0.1548 12.010000
22553 ha 16716 TPS HA3 22553 0.1282 1.008000
22554 ha 16717 TPS HA2 22554 0.1332 1.008000
22555 ca 16717 TPS CA2 22555 -0.0753 12.010000
22556 ca 16717 TPS CA1 22556 -0.361 12.010000
22557 si 16717 TPS Si 22557 1.1 28.085000
22558 ca 16717 TPS CA6 22558 -0.0753 12.010000
22559 ha 16717 TPS HH6 22559 0.1332 1.008000
22560 ca 16717 TPS CA5 22560 -0.1548 12.010000
22561 ha 16717 TPS HA5 22561 0.1282 1.008000
22562 ca 16717 TPS CA4 22562 -0.1028 12.010000
22563 ha 16717 TPS HA4 22563 0.1262 1.008000
22564 ca 16717 TPS CA3 22564 -0.1548 12.010000
22565 ha 16717 TPS HA3 22565 0.1282 1.008000
22566 ha 16718 TPS HA2 22566 0.1332 1.008000
22567 ca 16718 TPS CA2 22567 -0.0753 12.010000
22568 ca 16718 TPS CA1 22568 -0.361 12.010000
22569 si 16718 TPS Si 22569 1.1 28.085000
22570 ca 16718 TPS CA6 22570 -0.0753 12.010000
22571 ha 16718 TPS HH6 22571 0.1332 1.008000
22572 ca 16718 TPS CA5 22572 -0.1548 12.010000
22573 ha 16718 TPS HA5 22573 0.1282 1.008000
22574 ca 16718 TPS CA4 22574 -0.1028 12.010000
22575 ha 16718 TPS HA4 22575 0.1262 1.008000
22576 ca 16718 TPS CA3 22576 -0.1548 12.010000
22577 ha 16718 TPS HA3 22577 0.1282 1.008000
22578 ha 16719 TPS HA2 22578 0.1332 1.008000
22579 ca 16719 TPS CA2 22579 -0.0753 12.010000
22580 ca 16719 TPS CA1 22580 -0.361 12.010000
22581 si 16719 TPS Si 22581 1.1 28.085000
22582 ca 16719 TPS CA6 22582 -0.0753 12.010000
22583 ha 16719 TPS HH6 22583 0.1332 1.008000
22584 ca 16719 TPS CA5 22584 -0.1548 12.010000
22585 ha 16719 TPS HA5 22585 0.1282 1.008000
22586 ca 16719 TPS CA4 22586 -0.1028 12.010000
22587 ha 16719 TPS HA4 22587 0.1262 1.008000
22588 ca 16719 TPS CA3 22588 -0.1548 12.010000
22589 ha 16719 TPS HA3 22589 0.1282 1.008000
22590 ha 16720 TPS HA2 22590 0.1332 1.008000
22591 ca 16720 TPS CA2 22591 -0.0753 12.010000
22592 ca 16720 TPS CA1 22592 -0.361 12.010000
22593 si 16720 TPS Si 22593 1.1 28.085000
22594 ca 16720 TPS CA6 22594 -0.0753 12.010000
22595 ha 16720 TPS HH6 22595 0.1332 1.008000
22596 ca 16720 TPS CA5 22596 -0.1548 12.010000
22597 ha 16720 TPS HA5 22597 0.1282 1.008000
22598 ca 16720 TPS CA4 22598 -0.1028 12.010000
22599 ha 16720 TPS HA4 22599 0.1262 1.008000
22600 ca 16720 TPS CA3 22600 -0.1548 12.010000
22601 ha 16720 TPS HA3 22601 0.1282 1.008000
22602 ha 16721 TPS HA2 22602 0.1332 1.008000
22603 ca 16721 TPS CA2 22603 -0.0753 12.010000
22604 ca 16721 TPS CA1 22604 -0.361 12.010000
22605 si 16721 TPS Si 22605 1.1 28.085000
22606 ca 16721 TPS CA6 22606 -0.0753 12.010000
22607 ha 16721 TPS HH6 22607 0.1332 1.008000
22608 ca 16721 TPS CA5 22608 -0.1548 12.010000
22609 ha 16721 TPS HA5 22609 0.1282 1.008000
22610 ca 16721 TPS CA4 22610 -0.1028 12.010000
22611 ha 16721 TPS HA4 22611 0.1262 1.008000
22612 ca 16721 TPS CA3 22612 -0.1548 12.010000
22613 ha 16721 TPS HA3 22613 0.1282 1.008000
22614 ha 16722 TPS HA2 22614 0.1332 1.008000
22615 ca 16722 TPS CA2 22615 -0.0753 12.010000
22616 ca 16722 TPS CA1 22616 -0.361 12.010000
22617 si 16722 TPS Si 22617 1.1 28.085000
22618 ca 16722 TPS CA6 22618 -0.0753 12.010000
22619 ha 16722 TPS HH6 22619 0.1332 1.008000
22620 ca 16722 TPS CA5 22620 -0.1548 12.010000
22621 ha 16722 TPS HA5 22621 0.1282 1.008000
22622 ca 16722 TPS CA4 22622 -0.1028 12.010000
22623 ha 16722 TPS HA4 22623 0.1262 1.008000
22624 ca 16722 TPS CA3 22624 -0.1548 12.010000
22625 ha 16722 TPS HA3 22625 0.1282 1.008000
22626 ha 16723 TPS HA2 22626 0.1332 1.008000
22627 ca 16723 TPS CA2 22627 -0.0753 12.010000
22628 ca 16723 TPS CA1 22628 -0.361 12.010000
22629 si 16723 TPS Si 22629 1.1 28.085000
22630 ca 16723 TPS CA6 22630 -0.0753 12.010000
22631 ha 16723 TPS HH6 22631 0.1332 1.008000
22632 ca 16723 TPS CA5 22632 -0.1548 12.010000
22633 ha 16723 TPS HA5 22633 0.1282 1.008000
22634 ca 16723 TPS CA4 22634 -0.1028 12.010000
22635 ha 16723 TPS HA4 22635 0.1262 1.008000
22636 ca 16723 TPS CA3 22636 -0.1548 12.010000
22637 ha 16723 TPS HA3 22637 0.1282 1.008000
22638 ha 16724 TPS HA2 22638 0.1332 1.008000
22639 ca 16724 TPS CA2 22639 -0.0753 12.010000
22640 ca 16724 TPS CA1 22640 -0.361 12.010000
22641 si 16724 TPS Si 22641 1.1 28.085000
22642 ca 16724 TPS CA6 22642 -0.0753 12.010000
22643 ha 16724 TPS HH6 22643 0.1332 1.008000
22644 ca 16724 TPS CA5 22644 -0.1548 12.010000
22645 ha 16724 TPS HA5 22645 0.1282 1.008000
22646 ca 16724 TPS CA4 22646 -0.1028 12.010000
22647 ha 16724 TPS HA4 22647 0.1262 1.008000
22648 ca 16724 TPS CA3 22648 -0.1548 12.010000
22649 ha 16724 TPS HA3 22649 0.1282 1.008000
22650 ha 16725 TPS HA2 22650 0.1332 1.008000
22651 ca 16725 TPS CA2 22651 -0.0753 12.010000
22652 ca 16725 TPS CA1 22652 -0.361 12.010000
22653 si 16725 TPS Si 22653 1.1 28.085000
22654 ca 16725 TPS CA6 22654 -0.0753 12.010000
22655 ha 16725 TPS HH6 22655 0.1332 1.008000
22656 ca 16725 TPS CA5 22656 -0.1548 12.010000
22657 ha 16725 TPS HA5 22657 0.1282 1.008000
22658 ca 16725 TPS CA4 22658 -0.1028 12.010000
22659 ha 16725 TPS HA4 22659 0.1262 1.008000
22660 ca 16725 TPS CA3 22660 -0.1548 12.010000
22661 ha 16725 TPS HA3 22661 0.1282 1.008000
22662 ha 16726 TPS HA2 22662 0.1332 1.008000
22663 ca 16726 TPS CA2 22663 -0.0753 12.010000
22664 ca 16726 TPS CA1 22664 -0.361 12.010000
22665 si 16726 TPS Si 22665 1.1 28.085000
22666 ca 16726 TPS CA6 22666 -0.0753 12.010000
22667 ha 16726 TPS HH6 22667 0.1332 1.008000
22668 ca 16726 TPS CA5 22668 -0.1548 12.010000
22669 ha 16726 TPS HA5 22669 0.1282 1.008000
22670 ca 16726 TPS CA4 22670 -0.1028 12.010000
22671 ha 16726 TPS HA4 22671 0.1262 1.008000
22672 ca 16726 TPS CA3 22672 -0.1548 12.010000
22673 ha 16726 TPS HA3 22673 0.1282 1.008000
22674 ha 16727 TPS HA2 22674 0.1332 1.008000
22675 ca 16727 TPS CA2 22675 -0.0753 12.010000
22676 ca 16727 TPS CA1 22676 -0.361 12.010000
22677 si 16727 TPS Si 22677 1.1 28.085000
22678 ca 16727 TPS CA6 22678 -0.0753 12.010000
22679 ha 16727 TPS HH6 22679 0.1332 1.008000
22680 ca 16727 TPS CA5 22680 -0.1548 12.010000
22681 ha 16727 TPS HA5 22681 0.1282 1.008000
22682 ca 16727 TPS CA4 22682 -0.1028 12.010000
22683 ha 16727 TPS HA4 22683 0.1262 1.008000
22684 ca 16727 TPS CA3 22684 -0.1548 12.010000
22685 ha 16727 TPS HA3 22685 0.1282 1.008000
22686 ha 16728 TPS HA2 22686 0.1332 1.008000
22687 ca 16728 TPS CA2 22687 -0.0753 12.010000
22688 ca 16728 TPS CA1 22688 -0.361 12.010000
22689 si 16728 TPS Si 22689 1.1 28.085000
22690 ca 16728 TPS CA6 22690 -0.0753 12.010000
22691 ha 16728 TPS HH6 22691 0.1332 1.008000
22692 ca 16728 TPS CA5 22692 -0.1548 12.010000
22693 ha 16728 TPS HA5 22693 0.1282 1.008000
22694 ca 16728 TPS CA4 22694 -0.1028 12.010000
22695 ha 16728 TPS HA4 22695 0.1262 1.008000
22696 ca 16728 TPS CA3 22696 -0.1548 12.010000
22697 ha 16728 TPS HA3 22697 0.1282 1.008000
22698 ha 16729 TPS HA2 22698 0.1332 1.008000
22699 ca 16729 TPS CA2 22699 -0.0753 12.010000
22700 ca 16729 TPS CA1 22700 -0.361 12.010000
22701 si 16729 TPS Si 22701 1.1 28.085000
22702 ca 16729 TPS CA6 22702 -0.0753 12.010000
22703 ha 16729 TPS HH6 22703 0.1332 1.008000
22704 ca 16729 TPS CA5 22704 -0.1548 12.010000
22705 ha 16729 TPS HA5 22705 0.1282 1.008000
22706 ca 16729 TPS CA4 22706 -0.1028 12.010000
22707 ha 16729 TPS HA4 22707 0.1262 1.008000
22708 ca 16729 TPS CA3 22708 -0.1548 12.010000
22709 ha 16729 TPS HA3 22709 0.1282 1.008000
22710 ha 16730 TPS HA2 22710 0.1332 1.008000
22711 ca 16730 TPS CA2 22711 -0.0753 12.010000
22712 ca 16730 TPS CA1 22712 -0.361 12.010000
22713 si 16730 TPS Si 22713 1.1 28.085000
22714 ca 16730 TPS CA6 22714 -0.0753 12.010000
22715 ha 16730 TPS HH6 22715 0.1332 1.008000
22716 ca 16730 TPS CA5 22716 -0.1548 12.010000
22717 ha 16730 TPS HA5 22717 0.1282 1.008000
22718 ca 16730 TPS CA4 22718 -0.1028 12.010000
22719 ha 16730 TPS HA4 22719 0.1262 1.008000
22720 ca 16730 TPS CA3 22720 -0.1548 12.010000
22721 ha 16730 TPS HA3 22721 0.1282 1.008000
22722 ha 16731 TPS HA2 22722 0.1332 1.008000
22723 ca 16731 TPS CA2 22723 -0.0753 12.010000
22724 ca 16731 TPS CA1 22724 -0.361 12.010000
22725 si 16731 TPS Si 22725 1.1 28.085000
22726 ca 16731 TPS CA6 22726 -0.0753 12.010000
22727 ha 16731 TPS HH6 22727 0.1332 1.008000
22728 ca 16731 TPS CA5 22728 -0.1548 12.010000
22729 ha 16731 TPS HA5 22729 0.1282 1.008000
22730 ca 16731 TPS CA4 22730 -0.1028 12.010000
22731 ha 16731 TPS HA4 22731 0.1262 1.008000
22732 ca 16731 TPS CA3 22732 -0.1548 12.010000
22733 ha 16731 TPS HA3 22733 0.1282 1.008000
22734 ha 16732 TPS HA2 22734 0.1332 1.008000
22735 ca 16732 TPS CA2 22735 -0.0753 12.010000
22736 ca 16732 TPS CA1 22736 -0.361 12.010000
22737 si 16732 TPS Si 22737 1.1 28.085000
22738 ca 16732 TPS CA6 22738 -0.0753 12.010000
22739 ha 16732 TPS HH6 22739 0.1332 1.008000
22740 ca 16732 TPS CA5 22740 -0.1548 12.010000
22741 ha 16732 TPS HA5 22741 0.1282 1.008000
22742 ca 16732 TPS CA4 22742 -0.1028 12.010000
22743 ha 16732 TPS HA4 22743 0.1262 1.008000
22744 ca 16732 TPS CA3 22744 -0.1548 12.010000
22745 ha 16732 TPS HA3 22745 0.1282 1.008000
22746 ha 16733 TPS HA2 22746 0.1332 1.008000
22747 ca 16733 TPS CA2 22747 -0.0753 12.010000
22748 ca 16733 TPS CA1 22748 -0.361 12.010000
22749 si 16733 TPS Si 22749 1.1 28.085000
22750 ca 16733 TPS CA6 22750 -0.0753 12.010000
22751 ha 16733 TPS HH6 22751 0.1332 1.008000
22752 ca 16733 TPS CA5 22752 -0.1548 12.010000
22753 ha 16733 TPS HA5 22753 0.1282 1.008000
22754 ca 16733 TPS CA4 22754 -0.1028 12.010000
22755 ha 16733 TPS HA4 22755 0.1262 1.008000
22756 ca 16733 TPS CA3 22756 -0.1548 12.010000
22757 ha 16733 TPS HA3 22757 0.1282 1.008000
22758 ha 16734 TPS HA2 22758 0.1332 1.008000
22759 ca 16734 TPS CA2 22759 -0.0753 12.010000
22760 ca 16734 TPS CA1 22760 -0.361 12.010000
22761 si 16734 TPS Si 22761 1.1 28.085000
22762 ca 16734 TPS CA6 22762 -0.0753 12.010000
22763 ha 16734 TPS HH6 22763 0.1332 1.008000
22764 ca 16734 TPS CA5 22764 -0.1548 12.010000
22765 ha 16734 TPS HA5 22765 0.1282 1.008000
22766 ca 16734 TPS CA4 22766 -0.1028 12.010000
22767 ha 16734 TPS HA4 22767 0.1262 1.008000
22768 ca 16734 TPS CA3 22768 -0.1548 12.010000
22769 ha 16734 TPS HA3 22769 0.1282 1.008000
22770 ha 16735 TPS HA2 22770 0.1332 1.008000
22771 ca 16735 TPS CA2 22771 -0.0753 12.010000
22772 ca 16735 TPS CA1 22772 -0.361 12.010000
22773 si 16735 TPS Si 22773 1.1 28.085000
22774 ca 16735 TPS CA6 22774 -0.0753 12.010000
22775 ha 16735 TPS HH6 22775 0.1332 1.008000
22776 ca 16735 TPS CA5 22776 -0.1548 12.010000
22777 ha 16735 TPS HA5 22777 0.1282 1.008000
22778 ca 16735 TPS CA4 22778 -0.1028 12.010000
22779 ha 16735 TPS HA4 22779 0.1262 1.008000
22780 ca 16735 TPS CA3 22780 -0.1548 12.010000
22781 ha 16735 TPS HA3 22781 0.1282 1.008000
22782 ha 16736 TPS HA2 22782 0.1332 1.008000
22783 ca 16736 TPS CA2 22783 -0.0753 12.010000
22784 ca 16736 TPS CA1 22784 -0.361 12.010000
22785 si 16736 TPS Si 22785 1.1 28.085000
22786 ca 16736 TPS CA6 22786 -0.0753 12.010000
22787 ha 16736 TPS HH6 22787 0.1332 1.008000
22788 ca 16736 TPS CA5 22788 -0.1548 12.010000
22789 ha 16736 TPS HA5 22789 0.1282 1.008000
22790 ca 16736 TPS CA4 22790 -0.1028 12.010000
22791 ha 16736 TPS HA4 22791 0.1262 1.008000
22792 ca 16736 TPS CA3 22792 -0.1548 12.010000
22793 ha 16736 TPS HA3 22793 0.1282 1.008000
22794 ha 16737 TPS HA2 22794 0.1332 1.008000
22795 ca 16737 TPS CA2 22795 -0.0753 12.010000
22796 ca 16737 TPS CA1 22796 -0.361 12.010000
22797 si 16737 TPS Si 22797 1.1 28.085000
22798 ca 16737 TPS CA6 22798 -0.0753 12.010000
22799 ha 16737 TPS HH6 22799 0.1332 1.008000
22800 ca 16737 TPS CA5 22800 -0.1548 12.010000
22801 ha 16737 TPS HA5 22801 0.1282 1.008000
22802 ca 16737 TPS CA4 22802 -0.1028 12.010000
22803 ha 16737 TPS HA4 22803 0.1262 1.008000
22804 ca 16737 TPS CA3 22804 -0.1548 12.010000
22805 ha 16737 TPS HA3 22805 0.1282 1.008000
22806 ha 16738 TPS HA2 22806 0.1332 1.008000
22807 ca 16738 TPS CA2 22807 -0.0753 12.010000
22808 ca 16738 TPS CA1 22808 -0.361 12.010000
22809 si 16738 TPS Si 22809 1.1 28.085000
22810 ca 16738 TPS CA6 22810 -0.0753 12.010000
22811 ha 16738 TPS HH6 22811 0.1332 1.008000
22812 ca 16738 TPS CA5 22812 -0.1548 12.010000
22813 ha 16738 TPS HA5 22813 0.1282 1.008000
22814 ca 16738 TPS CA4 22814 -0.1028 12.010000
22815 ha 16738 TPS HA4 22815 0.1262 1.008000
22816 ca 16738 TPS CA3 22816 -0.1548 12.010000
22817 ha 16738 TPS HA3 22817 0.1282 1.008000
22818 ha 16739 TPS HA2 22818 0.1332 1.008000
22819 ca 16739 TPS CA2 22819 -0.0753 12.010000
22820 ca 16739 TPS CA1 22820 -0.361 12.010000
22821 si 16739 TPS Si 22821 1.1 28.085000
22822 ca 16739 TPS CA6 22822 -0.0753 12.010000
22823 ha 16739 TPS HH6 22823 0.1332 1.008000
22824 ca 16739 TPS CA5 22824 -0.1548 12.010000
22825 ha 16739 TPS HA5 22825 0.1282 1.008000
22826 ca 16739 TPS CA4 22826 -0.1028 12.010000
22827 ha 16739 TPS HA4 22827 0.1262 1.008000
22828 ca 16739 TPS CA3 22828 -0.1548 12.010000
22829 ha 16739 TPS HA3 22829 0.1282 1.008000
22830 ha 16740 TPS HA2 22830 0.1332 1.008000
22831 ca 16740 TPS CA2 22831 -0.0753 12.010000
22832 ca 16740 TPS CA1 22832 -0.361 12.010000
22833 si 16740 TPS Si 22833 1.1 28.085000
22834 ca 16740 TPS CA6 22834 -0.0753 12.010000
22835 ha 16740 TPS HH6 22835 0.1332 1.008000
22836 ca 16740 TPS CA5 22836 -0.1548 12.010000
22837 ha 16740 TPS HA5 22837 0.1282 1.008000
22838 ca 16740 TPS CA4 22838 -0.1028 12.010000
22839 ha 16740 TPS HA4 22839 0.1262 1.008000
22840 ca 16740 TPS CA3 22840 -0.1548 12.010000
22841 ha 16740 TPS HA3 22841 0.1282 1.008000
22842 ha 16741 TPS HA2 22842 0.1332 1.008000
22843 ca 16741 TPS CA2 22843 -0.0753 12.010000
22844 ca 16741 TPS CA1 22844 -0.361 12.010000
22845 si 16741 TPS Si 22845 1.1 28.085000
22846 ca 16741 TPS CA6 22846 -0.0753 12.010000
22847 ha 16741 TPS HH6 22847 0.1332 1.008000
22848 ca 16741 TPS CA5 22848 -0.1548 12.010000
22849 ha 16741 TPS HA5 22849 0.1282 1.008000
22850 ca 16741 TPS CA4 22850 -0.1028 12.010000
22851 ha 16741 TPS HA4 22851 0.1262 1.008000
22852 ca 16741 TPS CA3 22852 -0.1548 12.010000
22853 ha 16741 TPS HA3 22853 0.1282 1.008000
22854 ha 16742 TPS HA2 22854 0.1332 1.008000
22855 ca 16742 TPS CA2 22855 -0.0753 12.010000
22856 ca 16742 TPS CA1 22856 -0.361 12.010000
22857 si 16742 TPS Si 22857 1.1 28.085000
22858 ca 16742 TPS CA6 22858 -0.0753 12.010000
22859 ha 16742 TPS HH6 22859 0.1332 1.008000
22860 ca 16742 TPS CA5 22860 -0.1548 12.010000
22861 ha 16742 TPS HA5 22861 0.1282 1.008000
22862 ca 16742 TPS CA4 22862 -0.1028 12.010000
22863 ha 16742 TPS HA4 22863 0.1262 1.008000
22864 ca 16742 TPS CA3 22864 -0.1548 12.010000
22865 ha 16742 TPS HA3 22865 0.1282 1.008000
22866 ha 16743 TPS HA2 22866 0.1332 1.008000
22867 ca 16743 TPS CA2 22867 -0.0753 12.010000
22868 ca 16743 TPS CA1 22868 -0.361 12.010000
22869 si 16743 TPS Si 22869 1.1 28.085000
22870 ca 16743 TPS CA6 22870 -0.0753 12.010000
22871 ha 16743 TPS HH6 22871 0.1332 1.008000
22872 ca 16743 TPS CA5 22872 -0.1548 12.010000
22873 ha 16743 TPS HA5 22873 0.1282 1.008000
22874 ca 16743 TPS CA4 22874 -0.1028 12.010000
22875 ha 16743 TPS HA4 22875 0.1262 1.008000
22876 ca 16743 TPS CA3 22876 -0.1548 12.010000
22877 ha 16743 TPS HA3 22877 0.1282 1.008000
22878 ha 16744 TPS HA2 22878 0.1332 1.008000
22879 ca 16744 TPS CA2 22879 -0.0753 12.010000
22880 ca 16744 TPS CA1 22880 -0.361 12.010000
22881 si 16744 TPS Si 22881 1.1 28.085000
22882 ca 16744 TPS CA6 22882 -0.0753 12.010000
22883 ha 16744 TPS HH6 22883 0.1332 1.008000
22884 ca 16744 TPS CA5 22884 -0.1548 12.010000
22885 ha 16744 TPS HA5 22885 0.1282 1.008000
22886 ca 16744 TPS CA4 22886 -0.1028 12.010000
22887 ha 16744 TPS HA4 22887 0.1262 1.008000
22888 ca 16744 TPS CA3 22888 -0.1548 12.010000
22889 ha 16744 TPS HA3 22889 0.1282 1.008000
22890 ha 16745 TPS HA2 22890 0.1332 1.008000
22891 ca 16745 TPS CA2 22891 -0.0753 12.010000
22892 ca 16745 TPS CA1 22892 -0.361 12.010000
22893 si 16745 TPS Si 22893 1.1 28.085000
22894 ca 16745 TPS CA6 22894 -0.0753 12.010000
22895 ha 16745 TPS HH6 22895 0.1332 1.008000
22896 ca 16745 TPS CA5 22896 -0.1548 12.010000
22897 ha 16745 TPS HA5 22897 0.1282 1.008000
22898 ca 16745 TPS CA4 22898 -0.1028 12.010000
22899 ha 16745 TPS HA4 22899 0.1262 1.008000
22900 ca 16745 TPS CA3 22900 -0.1548 12.010000
22901 ha 16745 TPS HA3 22901 0.1282 1.008000
22902 ha 16746 TPS HA2 22902 0.1332 1.008000
22903 ca 16746 TPS CA2 22903 -0.0753 12.010000
22904 ca 16746 TPS CA1 22904 -0.361 12.010000
22905 si 16746 TPS Si 22905 1.1 28.085000
22906 ca 16746 TPS CA6 22906 -0.0753 12.010000
22907 ha 16746 TPS HH6 22907 0.1332 1.008000
22908 ca 16746 TPS CA5 22908 -0.1548 12.010000
22909 ha 16746 TPS HA5 22909 0.1282 1.008000
22910 ca 16746 TPS CA4 22910 -0.1028 12.010000
22911 ha 16746 TPS HA4 22911 0.1262 1.008000
22912 ca 16746 TPS CA3 22912 -0.1548 12.010000
22913 ha 16746 TPS HA3 22913 0.1282 1.008000
22914 ha 16747 TPS HA2 22914 0.1332 1.008000
22915 ca 16747 TPS CA2 22915 -0.0753 12.010000
22916 ca 16747 TPS CA1 22916 -0.361 12.010000
22917 si 16747 TPS Si 22917 1.1 28.085000
22918 ca 16747 TPS CA6 22918 -0.0753 12.010000
22919 ha 16747 TPS HH6 22919 0.1332 1.008000
22920 ca 16747 TPS CA5 22920 -0.1548 12.010000
22921 ha 16747 TPS HA5 22921 0.1282 1.008000
22922 ca 16747 TPS CA4 22922 -0.1028 12.010000
22923 ha 16747 TPS HA4 22923 0.1262 1.008000
22924 ca 16747 TPS CA3 22924 -0.1548 12.010000
22925 ha 16747 TPS HA3 22925 0.1282 1.008000
22926 ha 16748 TPS HA2 22926 0.1332 1.008000
22927 ca 16748 TPS CA2 22927 -0.0753 12.010000
22928 ca 16748 TPS CA1 22928 -0.361 12.010000
22929 si 16748 TPS Si 22929 1.1 28.085000
22930 ca 16748 TPS CA6 22930 -0.0753 12.010000
22931 ha 16748 TPS HH6 22931 0.1332 1.008000
22932 ca 16748 TPS CA5 22932 -0.1548 12.010000
22933 ha 16748 TPS HA5 22933 0.1282 1.008000
22934 ca 16748 TPS CA4 22934 -0.1028 12.010000
22935 ha 16748 TPS HA4 22935 0.1262 1.008000
22936 ca 16748 TPS CA3 22936 -0.1548 12.010000
22937 ha 16748 TPS HA3 22937 0.1282 1.008000
22938 ha 16749 TPS HA2 22938 0.1332 1.008000
22939 ca 16749 TPS CA2 22939 -0.0753 12.010000
22940 ca 16749 TPS CA1 22940 -0.361 12.010000
22941 si 16749 TPS Si 22941 1.1 28.085000
22942 ca 16749 TPS CA6 22942 -0.0753 12.010000
22943 ha 16749 TPS HH6 22943 0.1332 1.008000
22944 ca 16749 TPS CA5 22944 -0.1548 12.010000
22945 ha 16749 TPS HA5 22945 0.1282 1.008000
22946 ca 16749 TPS CA4 22946 -0.1028 12.010000
22947 ha 16749 TPS HA4 22947 0.1262 1.008000
22948 ca 16749 TPS CA3 22948 -0.1548 12.010000
22949 ha 16749 TPS HA3 22949 0.1282 1.008000
22950 ha 16750 TPS HA2 22950 0.1332 1.008000
22951 ca 16750 TPS CA2 22951 -0.0753 12.010000
22952 ca 16750 TPS CA1 22952 -0.361 12.010000
22953 si 16750 TPS Si 22953 1.1 28.085000
22954 ca 16750 TPS CA6 22954 -0.0753 12.010000
22955 ha 16750 TPS HH6 22955 0.1332 1.008000
22956 ca 16750 TPS CA5 22956 -0.1548 12.010000
22957 ha 16750 TPS HA5 22957 0.1282 1.008000
22958 ca 16750 TPS CA4 22958 -0.1028 12.010000
22959 ha 16750 TPS HA4 22959 0.1262 1.008000
22960 ca 16750 TPS CA3 22960 -0.1548 12.010000
22961 ha 16750 TPS HA3 22961 0.1282 1.008000
22962 ha 16751 TPS HA2 22962 0.1332 1.008000
22963 ca 16751 TPS CA2 22963 -0.0753 12.010000
22964 ca 16751 TPS CA1 22964 -0.361 12.010000
22965 si 16751 TPS Si 22965 1.1 28.085000
22966 ca 16751 TPS CA6 22966 -0.0753 12.010000
22967 ha 16751 TPS HH6 22967 0.1332 1.008000
22968 ca 16751 TPS CA5 22968 -0.1548 12.010000
22969 ha 16751 TPS HA5 22969 0.1282 1.008000
22970 ca 16751 TPS CA4 22970 -0.1028 12.010000
22971 ha 16751 TPS HA4 22971 0.1262 1.008000
22972 ca 16751 TPS CA3 22972 -0.1548 12.010000
22973 ha 16751 TPS HA3 22973 0.1282 1.008000
22974 ha 16752 TPS HA2 22974 0.1332 1.008000
22975 ca 16752 TPS CA2 22975 -0.0753 12.010000
22976 ca 16752 TPS CA1 22976 -0.361 12.010000
22977 si 16752 TPS Si 22977 1.1 28.085000
22978 ca 16752 TPS CA6 22978 -0.0753 12.010000
22979 ha 16752 TPS HH6 22979 0.1332 1.008000
22980 ca 16752 TPS CA5 22980 -0.1548 12.010000
22981 ha 16752 TPS HA5 22981 0.1282 1.008000
22982 ca 16752 TPS CA4 22982 -0.1028 12.010000
22983 ha 16752 TPS HA4 22983 0.1262 1.008000
22984 ca 16752 TPS CA3 22984 -0.1548 12.010000
22985 ha 16752 TPS HA3 22985 0.1282 1.008000
22986 ha 16753 TPS HA2 22986 0.1332 1.008000
22987 ca 16753 TPS CA2 22987 -0.0753 12.010000
22988 ca 16753 TPS CA1 22988 -0.361 12.010000
22989 si 16753 TPS Si 22989 1.1 28.085000
22990 ca 16753 TPS CA6 22990 -0.0753 12.010000
22991 ha 16753 TPS HH6 22991 0.1332 1.008000
22992 ca 16753 TPS CA5 22992 -0.1548 12.010000
22993 ha 16753 TPS HA5 22993 0.1282 1.008000
22994 ca 16753 TPS CA4 22994 -0.1028 12.010000
22995 ha 16753 TPS HA4 22995 0.1262 1.008000
22996 ca 16753 TPS CA3 22996 -0.1548 12.010000
22997 ha 16753 TPS HA3 22997 0.1282 1.008000
22998 ha 16754 TPS HA2 22998 0.1332 1.008000
22999 ca 16754 TPS CA2 22999 -0.0753 12.010000
23000 ca 16754 TPS CA1 23000 -0.361 12.010000
23001 si 16754 TPS Si 23001 1.1 28.085000
23002 ca 16754 TPS CA6 23002 -0.0753 12.010000
23003 ha 16754 TPS HH6 23003 0.1332 1.008000
23004 ca 16754 TPS CA5 23004 -0.1548 12.010000
23005 ha 16754 TPS HA5 23005 0.1282 1.008000
23006 ca 16754 TPS CA4 23006 -0.1028 12.010000
23007 ha 16754 TPS HA4 23007 0.1262 1.008000
23008 ca 16754 TPS CA3 23008 -0.1548 12.010000
23009 ha 16754 TPS HA3 23009 0.1282 1.008000
23010 ha 16755 TPS HA2 23010 0.1332 1.008000
23011 ca 16755 TPS CA2 23011 -0.0753 12.010000
23012 ca 16755 TPS CA1 23012 -0.361 12.010000
23013 si 16755 TPS Si 23013 1.1 28.085000
23014 ca 16755 TPS CA6 23014 -0.0753 12.010000
23015 ha 16755 TPS HH6 23015 0.1332 1.008000
23016 ca 16755 TPS CA5 23016 -0.1548 12.010000
23017 ha 16755 TPS HA5 23017 0.1282 1.008000
23018 ca 16755 TPS CA4 23018 -0.1028 12.010000
23019 ha 16755 TPS HA4 23019 0.1262 1.008000
23020 ca 16755 TPS CA3 23020 -0.1548 12.010000
23021 ha 16755 TPS HA3 23021 0.1282 1.008000
23022 ha 16756 TPS HA2 23022 0.1332 1.008000
23023 ca 16756 TPS CA2 23023 -0.0753 12.010000
23024 ca 16756 TPS CA1 23024 -0.361 12.010000
23025 si 16756 TPS Si 23025 1.1 28.085000
23026 ca 16756 TPS CA6 23026 -0.0753 12.010000
23027 ha 16756 TPS HH6 23027 0.1332 1.008000
23028 ca 16756 TPS CA5 23028 -0.1548 12.010000
23029 ha 16756 TPS HA5 23029 0.1282 1.008000
23030 ca 16756 TPS CA4 23030 -0.1028 12.010000
23031 ha 16756 TPS HA4 23031 0.1262 1.008000
23032 ca 16756 TPS CA3 23032 -0.1548 12.010000
23033 ha 16756 TPS HA3 23033 0.1282 1.008000
23034 ha 16757 TPS HA2 23034 0.1332 1.008000
23035 ca 16757 TPS CA2 23035 -0.0753 12.010000
23036 ca 16757 TPS CA1 23036 -0.361 12.010000
23037 si 16757 TPS Si 23037 1.1 28.085000
23038 ca 16757 TPS CA6 23038 -0.0753 12.010000
23039 ha 16757 TPS HH6 23039 0.1332 1.008000
23040 ca 16757 TPS CA5 23040 -0.1548 12.010000
23041 ha 16757 TPS HA5 23041 0.1282 1.008000
23042 ca 16757 TPS CA4 23042 -0.1028 12.010000
23043 ha 16757 TPS HA4 23043 0.1262 1.008000
23044 ca 16757 TPS CA3 23044 -0.1548 12.010000
23045 ha 16757 TPS HA3 23045 0.1282 1.008000
23046 ha 16758 TPS HA2 23046 0.1332 1.008000
23047 ca 16758 TPS CA2 23047 -0.0753 12.010000
23048 ca 16758 TPS CA1 23048 -0.361 12.010000
23049 si 16758 TPS Si 23049 1.1 28.085000
23050 ca 16758 TPS CA6 23050 -0.0753 12.010000
23051 ha 16758 TPS HH6 23051 0.1332 1.008000
23052 ca 16758 TPS CA5 23052 -0.1548 12.010000
23053 ha 16758 TPS HA5 23053 0.1282 1.008000
23054 ca 16758 TPS CA4 23054 -0.1028 12.010000
23055 ha 16758 TPS HA4 23055 0.1262 1.008000
23056 ca 16758 TPS CA3 23056 -0.1548 12.010000
23057 ha 16758 TPS HA3 23057 0.1282 1.008000
23058 ha 16759 TPS HA2 23058 0.1332 1.008000
23059 ca 16759 TPS CA2 23059 -0.0753 12.010000
23060 ca 16759 TPS CA1 23060 -0.361 12.010000
23061 si 16759 TPS Si 23061 1.1 28.085000
23062 ca 16759 TPS CA6 23062 -0.0753 12.010000
23063 ha 16759 TPS HH6 23063 0.1332 1.008000
23064 ca 16759 TPS CA5 23064 -0.1548 12.010000
23065 ha 16759 TPS HA5 23065 0.1282 1.008000
23066 ca 16759 TPS CA4 23066 -0.1028 12.010000
23067 ha 16759 TPS HA4 23067 0.1262 1.008000
23068 ca 16759 TPS CA3 23068 -0.1548 12.010000
23069 ha 16759 TPS HA3 23069 0.1282 1.008000
23070 ha 16760 TPS HA2 23070 0.1332 1.008000
23071 ca 16760 TPS CA2 23071 -0.0753 12.010000
23072 ca 16760 TPS CA1 23072 -0.361 12.010000
23073 si 16760 TPS Si 23073 1.1 28.085000
23074 ca 16760 TPS CA6 23074 -0.0753 12.010000
23075 ha 16760 TPS HH6 23075 0.1332 1.008000
23076 ca 16760 TPS CA5 23076 -0.1548 12.010000
23077 ha 16760 TPS HA5 23077 0.1282 1.008000
23078 ca 16760 TPS CA4 23078 -0.1028 12.010000
23079 ha 16760 TPS HA4 23079 0.1262 1.008000
23080 ca 16760 TPS CA3 23080 -0.1548 12.010000
23081 ha 16760 TPS HA3 23081 0.1282 1.008000
23082 ha 16761 TPS HA2 23082 0.1332 1.008000
23083 ca 16761 TPS CA2 23083 -0.0753 12.010000
23084 ca 16761 TPS CA1 23084 -0.361 12.010000
23085 si 16761 TPS Si 23085 1.1 28.085000
23086 ca 16761 TPS CA6 23086 -0.0753 12.010000
23087 ha 16761 TPS HH6 23087 0.1332 1.008000
23088 ca 16761 TPS CA5 23088 -0.1548 12.010000
23089 ha 16761 TPS HA5 23089 0.1282 1.008000
23090 ca 16761 TPS CA4 23090 -0.1028 12.010000
23091 ha 16761 TPS HA4 23091 0.1262 1.008000
23092 ca 16761 TPS CA3 23092 -0.1548 12.010000
23093 ha 16761 TPS HA3 23093 0.1282 1.008000
23094 ha 16762 TPS HA2 23094 0.1332 1.008000
23095 ca 16762 TPS CA2 23095 -0.0753 12.010000
23096 ca 16762 TPS CA1 23096 -0.361 12.010000
23097 si 16762 TPS Si 23097 1.1 28.085000
23098 ca 16762 TPS CA6 23098 -0.0753 12.010000
23099 ha 16762 TPS HH6 23099 0.1332 1.008000
23100 ca 16762 TPS CA5 23100 -0.1548 12.010000
23101 ha 16762 TPS HA5 23101 0.1282 1.008000
23102 ca 16762 TPS CA4 23102 -0.1028 12.010000
23103 ha 16762 TPS HA4 23103 0.1262 1.008000
23104 ca 16762 TPS CA3 23104 -0.1548 12.010000
23105 ha 16762 TPS HA3 23105 0.1282 1.008000
23106 ha 16763 TPS HA2 23106 0.1332 1.008000
23107 ca 16763 TPS CA2 23107 -0.0753 12.010000
23108 ca 16763 TPS CA1 23108 -0.361 12.010000
23109 si 16763 TPS Si 23109 1.1 28.085000
23110 ca 16763 TPS CA6 23110 -0.0753 12.010000
23111 ha 16763 TPS HH6 23111 0.1332 1.008000
23112 ca 16763 TPS CA5 23112 -0.1548 12.010000
23113 ha 16763 TPS HA5 23113 0.1282 1.008000
23114 ca 16763 TPS CA4 23114 -0.1028 12.010000
23115 ha 16763 TPS HA4 23115 0.1262 1.008000
23116 ca 16763 TPS CA3 23116 -0.1548 12.010000
23117 ha 16763 TPS HA3 23117 0.1282 1.008000
23118 ha 16764 TPS HA2 23118 0.1332 1.008000
23119 ca 16764 TPS CA2 23119 -0.0753 12.010000
23120 ca 16764 TPS CA1 23120 -0.361 12.010000
23121 si 16764 TPS Si 23121 1.1 28.085000
23122 ca 16764 TPS CA6 23122 -0.0753 12.010000
23123 ha 16764 TPS HH6 23123 0.1332 1.008000
23124 ca 16764 TPS CA5 23124 -0.1548 12.010000
23125 ha 16764 TPS HA5 23125 0.1282 1.008000
23126 ca 16764 TPS CA4 23126 -0.1028 12.010000
23127 ha 16764 TPS HA4 23127 0.1262 1.008000
23128 ca 16764 TPS CA3 23128 -0.1548 12.010000
23129 ha 16764 TPS HA3 23129 0.1282 1.008000
23130 ha 16765 TPS HA2 23130 0.1332 1.008000
23131 ca 16765 TPS CA2 23131 -0.0753 12.010000
23132 ca 16765 TPS CA1 23132 -0.361 12.010000
23133 si 16765 TPS Si 23133 1.1 28.085000
23134 ca 16765 TPS CA6 23134 -0.0753 12.010000
23135 ha 16765 TPS HH6 23135 0.1332 1.008000
23136 ca 16765 TPS CA5 23136 -0.1548 12.010000
23137 ha 16765 TPS HA5 23137 0.1282 1.008000
23138 ca 16765 TPS CA4 23138 -0.1028 12.010000
23139 ha 16765 TPS HA4 23139 0.1262 1.008000
23140 ca 16765 TPS CA3 23140 -0.1548 12.010000
23141 ha 16765 TPS HA3 23141 0.1282 1.008000
23142 ha 16766 TPS HA2 23142 0.1332 1.008000
23143 ca 16766 TPS CA2 23143 -0.0753 12.010000
23144 ca 16766 TPS CA1 23144 -0.361 12.010000
23145 si 16766 TPS Si 23145 1.1 28.085000
23146 ca 16766 TPS CA6 23146 -0.0753 12.010000
23147 ha 16766 TPS HH6 23147 0.1332 1.008000
23148 ca 16766 TPS CA5 23148 -0.1548 12.010000
23149 ha 16766 TPS HA5 23149 0.1282 1.008000
23150 ca 16766 TPS CA4 23150 -0.1028 12.010000
23151 ha 16766 TPS HA4 23151 0.1262 1.008000
23152 ca 16766 TPS CA3 23152 -0.1548 12.010000
23153 ha 16766 TPS HA3 23153 0.1282 1.008000
23154 ha 16767 TPS HA2 23154 0.1332 1.008000
23155 ca 16767 TPS CA2 23155 -0.0753 12.010000
23156 ca 16767 TPS CA1 23156 -0.361 12.010000
23157 si 16767 TPS Si 23157 1.1 28.085000
23158 ca 16767 TPS CA6 23158 -0.0753 12.010000
23159 ha 16767 TPS HH6 23159 0.1332 1.008000
23160 ca 16767 TPS CA5 23160 -0.1548 12.010000
23161 ha 16767 TPS HA5 23161 0.1282 1.008000
23162 ca 16767 TPS CA4 23162 -0.1028 12.010000
23163 ha 16767 TPS HA4 23163 0.1262 1.008000
23164 ca 16767 TPS CA3 23164 -0.1548 12.010000
23165 ha 16767 TPS HA3 23165 0.1282 1.008000
23166 ha 16768 TPS HA2 23166 0.1332 1.008000
23167 ca 16768 TPS CA2 23167 -0.0753 12.010000
23168 ca 16768 TPS CA1 23168 -0.361 12.010000
23169 si 16768 TPS Si 23169 1.1 28.085000
23170 ca 16768 TPS CA6 23170 -0.0753 12.010000
23171 ha 16768 TPS HH6 23171 0.1332 1.008000
23172 ca 16768 TPS CA5 23172 -0.1548 12.010000
23173 ha 16768 TPS HA5 23173 0.1282 1.008000
23174 ca 16768 TPS CA4 23174 -0.1028 12.010000
23175 ha 16768 TPS HA4 23175 0.1262 1.008000
23176 ca 16768 TPS CA3 23176 -0.1548 12.010000
23177 ha 16768 TPS HA3 23177 0.1282 1.008000
23178 ha 16769 TPS HA2 23178 0.1332 1.008000
23179 ca 16769 TPS CA2 23179 -0.0753 12.010000
23180 ca 16769 TPS CA1 23180 -0.361 12.010000
23181 si 16769 TPS Si 23181 1.1 28.085000
23182 ca 16769 TPS CA6 23182 -0.0753 12.010000
23183 ha 16769 TPS HH6 23183 0.1332 1.008000
23184 ca 16769 TPS CA5 23184 -0.1548 12.010000
23185 ha 16769 TPS HA5 23185 0.1282 1.008000
23186 ca 16769 TPS CA4 23186 -0.1028 12.010000
23187 ha 16769 TPS HA4 23187 0.1262 1.008000
23188 ca 16769 TPS CA3 23188 -0.1548 12.010000
23189 ha 16769 TPS HA3 23189 0.1282 1.008000
23190 ha 16770 TPS HA2 23190 0.1332 1.008000
23191 ca 16770 TPS CA2 23191 -0.0753 12.010000
23192 ca 16770 TPS CA1 23192 -0.361 12.010000
23193 si 16770 TPS Si 23193 1.1 28.085000
23194 ca 16770 TPS CA6 23194 -0.0753 12.010000
23195 ha 16770 TPS HH6 23195 0.1332 1.008000
23196 ca 16770 TPS CA5 23196 -0.1548 12.010000
23197 ha 16770 TPS HA5 23197 0.1282 1.008000
23198 ca 16770 TPS CA4 23198 -0.1028 12.010000
23199 ha 16770 TPS HA4 23199 0.1262 1.008000
23200 ca 16770 TPS CA3 23200 -0.1548 12.010000
23201 ha 16770 TPS HA3 23201 0.1282 1.008000
23202 ha 16771 TPS HA2 23202 0.1332 1.008000
23203 ca 16771 TPS CA2 23203 -0.0753 12.010000
23204 ca 16771 TPS CA1 23204 -0.361 12.010000
23205 si 16771 TPS Si 23205 1.1 28.085000
23206 ca 16771 TPS CA6 23206 -0.0753 12.010000
23207 ha 16771 TPS HH6 23207 0.1332 1.008000
23208 ca 16771 TPS CA5 23208 -0.1548 12.010000
23209 ha 16771 TPS HA5 23209 0.1282 1.008000
23210 ca 16771 TPS CA4 23210 -0.1028 12.010000
23211 ha 16771 TPS HA4 23211 0.1262 1.008000
23212 ca 16771 TPS CA3 23212 -0.1548 12.010000
23213 ha 16771 TPS HA3 23213 0.1282 1.008000
23214 ha 16772 TPS HA2 23214 0.1332 1.008000
23215 ca 16772 TPS CA2 23215 -0.0753 12.010000
23216 ca 16772 TPS CA1 23216 -0.361 12.010000
23217 si 16772 TPS Si 23217 1.1 28.085000
23218 ca 16772 TPS CA6 23218 -0.0753 12.010000
23219 ha 16772 TPS HH6 23219 0.1332 1.008000
23220 ca 16772 TPS CA5 23220 -0.1548 12.010000
23221 ha 16772 TPS HA5 23221 0.1282 1.008000
23222 ca 16772 TPS CA4 23222 -0.1028 12.010000
23223 ha 16772 TPS HA4 23223 0.1262 1.008000
23224 ca 16772 TPS CA3 23224 -0.1548 12.010000
23225 ha 16772 TPS HA3 23225 0.1282 1.008000
23226 ha 16773 TPS HA2 23226 0.1332 1.008000
23227 ca 16773 TPS CA2 23227 -0.0753 12.010000
23228 ca 16773 TPS CA1 23228 -0.361 12.010000
23229 si 16773 TPS Si 23229 1.1 28.085000
23230 ca 16773 TPS CA6 23230 -0.0753 12.010000
23231 ha 16773 TPS HH6 23231 0.1332 1.008000
23232 ca 16773 TPS CA5 23232 -0.1548 12.010000
23233 ha 16773 TPS HA5 23233 0.1282 1.008000
23234 ca 16773 TPS CA4 23234 -0.1028 12.010000
23235 ha 16773 TPS HA4 23235 0.1262 1.008000
23236 ca 16773 TPS CA3 23236 -0.1548 12.010000
23237 ha 16773 TPS HA3 23237 0.1282 1.008000
23238 ha 16774 TPS HA2 23238 0.1332 1.008000
23239 ca 16774 TPS CA2 23239 -0.0753 12.010000
23240 ca 16774 TPS CA1 23240 -0.361 12.010000
23241 si 16774 TPS Si 23241 1.1 28.085000
23242 ca 16774 TPS CA6 23242 -0.0753 12.010000
23243 ha 16774 TPS HH6 23243 0.1332 1.008000
23244 ca 16774 TPS CA5 23244 -0.1548 12.010000
23245 ha 16774 TPS HA5 23245 0.1282 1.008000
23246 ca 16774 TPS CA4 23246 -0.1028 12.010000
23247 ha 16774 TPS HA4 23247 0.1262 1.008000
23248 ca 16774 TPS CA3 23248 -0.1548 12.010000
23249 ha 16774 TPS HA3 23249 0.1282 1.008000
23250 ha 16775 TPS HA2 23250 0.1332 1.008000
23251 ca 16775 TPS CA2 23251 -0.0753 12.010000
23252 ca 16775 TPS CA1 23252 -0.361 12.010000
23253 si 16775 TPS Si 23253 1.1 28.085000
23254 ca 16775 TPS CA6 23254 -0.0753 12.010000
23255 ha 16775 TPS HH6 23255 0.1332 1.008000
23256 ca 16775 TPS CA5 23256 -0.1548 12.010000
23257 ha 16775 TPS HA5 23257 0.1282 1.008000
23258 ca 16775 TPS CA4 23258 -0.1028 12.010000
23259 ha 16775 TPS HA4 23259 0.1262 1.008000
23260 ca 16775 TPS CA3 23260 -0.1548 12.010000
23261 ha 16775 TPS HA3 23261 0.1282 1.008000
23262 ha 16776 TPS HA2 23262 0.1332 1.008000
23263 ca 16776 TPS CA2 23263 -0.0753 12.010000
23264 ca 16776 TPS CA1 23264 -0.361 12.010000
23265 si 16776 TPS Si 23265 1.1 28.085000
23266 ca 16776 TPS CA6 23266 -0.0753 12.010000
23267 ha 16776 TPS HH6 23267 0.1332 1.008000
23268 ca 16776 TPS CA5 23268 -0.1548 12.010000
23269 ha 16776 TPS HA5 23269 0.1282 1.008000
23270 ca 16776 TPS CA4 23270 -0.1028 12.010000
23271 ha 16776 TPS HA4 23271 0.1262 1.008000
23272 ca 16776 TPS CA3 23272 -0.1548 12.010000
23273 ha 16776 TPS HA3 23273 0.1282 1.008000
23274 ha 16777 TPS HA2 23274 0.1332 1.008000
23275 ca 16777 TPS CA2 23275 -0.0753 12.010000
23276 ca 16777 TPS CA1 23276 -0.361 12.010000
23277 si 16777 TPS Si 23277 1.1 28.085000
23278 ca 16777 TPS CA6 23278 -0.0753 12.010000
23279 ha 16777 TPS HH6 23279 0.1332 1.008000
23280 ca 16777 TPS CA5 23280 -0.1548 12.010000
23281 ha 16777 TPS HA5 23281 0.1282 1.008000
23282 ca 16777 TPS CA4 23282 -0.1028 12.010000
23283 ha 16777 TPS HA4 23283 0.1262 1.008000
23284 ca 16777 TPS CA3 23284 -0.1548 12.010000
23285 ha 16777 TPS HA3 23285 0.1282 1.008000
23286 ha 16778 TPS HA2 23286 0.1332 1.008000
23287 ca 16778 TPS CA2 23287 -0.0753 12.010000
23288 ca 16778 TPS CA1 23288 -0.361 12.010000
23289 si 16778 TPS Si 23289 1.1 28.085000
23290 ca 16778 TPS CA6 23290 -0.0753 12.010000
23291 ha 16778 TPS HH6 23291 0.1332 1.008000
23292 ca 16778 TPS CA5 23292 -0.1548 12.010000
23293 ha 16778 TPS HA5 23293 0.1282 1.008000
23294 ca 16778 TPS CA4 23294 -0.1028 12.010000
23295 ha 16778 TPS HA4 23295 0.1262 1.008000
23296 ca 16778 TPS CA3 23296 -0.1548 12.010000
23297 ha 16778 TPS HA3 23297 0.1282 1.008000
23298 ha 16779 TPS HA2 23298 0.1332 1.008000
23299 ca 16779 TPS CA2 23299 -0.0753 12.010000
23300 ca 16779 TPS CA1 23300 -0.361 12.010000
23301 si 16779 TPS Si 23301 1.1 28.085000
23302 ca 16779 TPS CA6 23302 -0.0753 12.010000
23303 ha 16779 TPS HH6 23303 0.1332 1.008000
23304 ca 16779 TPS CA5 23304 -0.1548 12.010000
23305 ha 16779 TPS HA5 23305 0.1282 1.008000
23306 ca 16779 TPS CA4 23306 -0.1028 12.010000
23307 ha 16779 TPS HA4 23307 0.1262 1.008000
23308 ca 16779 TPS CA3 23308 -0.1548 12.010000
23309 ha 16779 TPS HA3 23309 0.1282 1.008000
23310 ha 16780 TPS HA2 23310 0.1332 1.008000
23311 ca 16780 TPS CA2 23311 -0.0753 12.010000
23312 ca 16780 TPS CA1 23312 -0.361 12.010000
23313 si 16780 TPS Si 23313 1.1 28.085000
23314 ca 16780 TPS CA6 23314 -0.0753 12.010000
23315 ha 16780 TPS HH6 23315 0.1332 1.008000
23316 ca 16780 TPS CA5 23316 -0.1548 12.010000
23317 ha 16780 TPS HA5 23317 0.1282 1.008000
23318 ca 16780 TPS CA4 23318 -0.1028 12.010000
23319 ha 16780 TPS HA4 23319 0.1262 1.008000
23320 ca 16780 TPS CA3 23320 -0.1548 12.010000
23321 ha 16780 TPS HA3 23321 0.1282 1.008000
23322 ha 16781 TPS HA2 23322 0.1332 1.008000
23323 ca 16781 TPS CA2 23323 -0.0753 12.010000
23324 ca 16781 TPS CA1 23324 -0.361 12.010000
23325 si 16781 TPS Si 23325 1.1 28.085000
23326 ca 16781 TPS CA6 23326 -0.0753 12.010000
23327 ha 16781 TPS HH6 23327 0.1332 1.008000
23328 ca 16781 TPS CA5 23328 -0.1548 12.010000
23329 ha 16781 TPS HA5 23329 0.1282 1.008000
23330 ca 16781 TPS CA4 23330 -0.1028 12.010000
23331 ha 16781 TPS HA4 23331 0.1262 1.008000
23332 ca 16781 TPS CA3 23332 -0.1548 12.010000
23333 ha 16781 TPS HA3 23333 0.1282 1.008000
23334 ha 16782 TPS HA2 23334 0.1332 1.008000
23335 ca 16782 TPS CA2 23335 -0.0753 12.010000
23336 ca 16782 TPS CA1 23336 -0.361 12.010000
23337 si 16782 TPS Si 23337 1.1 28.085000
23338 ca 16782 TPS CA6 23338 -0.0753 12.010000
23339 ha 16782 TPS HH6 23339 0.1332 1.008000
23340 ca 16782 TPS CA5 23340 -0.1548 12.010000
23341 ha 16782 TPS HA5 23341 0.1282 1.008000
23342 ca 16782 TPS CA4 23342 -0.1028 12.010000
23343 ha 16782 TPS HA4 23343 0.1262 1.008000
23344 ca 16782 TPS CA3 23344 -0.1548 12.010000
23345 ha 16782 TPS HA3 23345 0.1282 1.008000
23346 ha 16783 TPS HA2 23346 0.1332 1.008000
23347 ca 16783 TPS CA2 23347 -0.0753 12.010000
23348 ca 16783 TPS CA1 23348 -0.361 12.010000
23349 si 16783 TPS Si 23349 1.1 28.085000
23350 ca 16783 TPS CA6 23350 -0.0753 12.010000
23351 ha 16783 TPS HH6 23351 0.1332 1.008000
23352 ca 16783 TPS CA5 23352 -0.1548 12.010000
23353 ha 16783 TPS HA5 23353 0.1282 1.008000
23354 ca 16783 TPS CA4 23354 -0.1028 12.010000
23355 ha 16783 TPS HA4 23355 0.1262 1.008000
23356 ca 16783 TPS CA3 23356 -0.1548 12.010000
23357 ha 16783 TPS HA3 23357 0.1282 1.008000
23358 ha 16784 TPS HA2 23358 0.1332 1.008000
23359 ca 16784 TPS CA2 23359 -0.0753 12.010000
23360 ca 16784 TPS CA1 23360 -0.361 12.010000
23361 si 16784 TPS Si 23361 1.1 28.085000
23362 ca 16784 TPS CA6 23362 -0.0753 12.010000
23363 ha 16784 TPS HH6 23363 0.1332 1.008000
23364 ca 16784 TPS CA5 23364 -0.1548 12.010000
23365 ha 16784 TPS HA5 23365 0.1282 1.008000
23366 ca 16784 TPS CA4 23366 -0.1028 12.010000
23367 ha 16784 TPS HA4 23367 0.1262 1.008000
23368 ca 16784 TPS CA3 23368 -0.1548 12.010000
23369 ha 16784 TPS HA3 23369 0.1282 1.008000
23370 ha 16785 TPS HA2 23370 0.1332 1.008000
23371 ca 16785 TPS CA2 23371 -0.0753 12.010000
23372 ca 16785 TPS CA1 23372 -0.361 12.010000
23373 si 16785 TPS Si 23373 1.1 28.085000
23374 ca 16785 TPS CA6 23374 -0.0753 12.010000
23375 ha 16785 TPS HH6 23375 0.1332 1.008000
23376 ca 16785 TPS CA5 23376 -0.1548 12.010000
23377 ha 16785 TPS HA5 23377 0.1282 1.008000
23378 ca 16785 TPS CA4 23378 -0.1028 12.010000
23379 ha 16785 TPS HA4 23379 0.1262 1.008000
23380 ca 16785 TPS CA3 23380 -0.1548 12.010000
23381 ha 16785 TPS HA3 23381 0.1282 1.008000
23382 ha 16786 TPS HA2 23382 0.1332 1.008000
23383 ca 16786 TPS CA2 23383 -0.0753 12.010000
23384 ca 16786 TPS CA1 23384 -0.361 12.010000
23385 si 16786 TPS Si 23385 1.1 28.085000
23386 ca 16786 TPS CA6 23386 -0.0753 12.010000
23387 ha 16786 TPS HH6 23387 0.1332 1.008000
23388 ca 16786 TPS CA5 23388 -0.1548 12.010000
23389 ha 16786 TPS HA5 23389 0.1282 1.008000
23390 ca 16786 TPS CA4 23390 -0.1028 12.010000
23391 ha 16786 TPS HA4 23391 0.1262 1.008000
23392 ca 16786 TPS CA3 23392 -0.1548 12.010000
23393 ha 16786 TPS HA3 23393 0.1282 1.008000
23394 ha 16787 TPS HA2 23394 0.1332 1.008000
23395 ca 16787 TPS CA2 23395 -0.0753 12.010000
23396 ca 16787 TPS CA1 23396 -0.361 12.010000
23397 si 16787 TPS Si 23397 1.1 28.085000
23398 ca 16787 TPS CA6 23398 -0.0753 12.010000
23399 ha 16787 TPS HH6 23399 0.1332 1.008000
23400 ca 16787 TPS CA5 23400 -0.1548 12.010000
23401 ha 16787 TPS HA5 23401 0.1282 1.008000
23402 ca 16787 TPS CA4 23402 -0.1028 12.010000
23403 ha 16787 TPS HA4 23403 0.1262 1.008000
23404 ca 16787 TPS CA3 23404 -0.1548 12.010000
23405 ha 16787 TPS HA3 23405 0.1282 1.008000
23406 ha 16788 TPS HA2 23406 0.1332 1.008000
23407 ca 16788 TPS CA2 23407 -0.0753 12.010000
23408 ca 16788 TPS CA1 23408 -0.361 12.010000
23409 si 16788 TPS Si 23409 1.1 28.085000
23410 ca 16788 TPS CA6 23410 -0.0753 12.010000
23411 ha 16788 TPS HH6 23411 0.1332 1.008000
23412 ca 16788 TPS CA5 23412 -0.1548 12.010000
23413 ha 16788 TPS HA5 23413 0.1282 1.008000
23414 ca 16788 TPS CA4 23414 -0.1028 12.010000
23415 ha 16788 TPS HA4 23415 0.1262 1.008000
23416 ca 16788 TPS CA3 23416 -0.1548 12.010000
23417 ha 16788 TPS HA3 23417 0.1282 1.008000
23418 ha 16789 TPS HA2 23418 0.1332 1.008000
23419 ca 16789 TPS CA2 23419 -0.0753 12.010000
23420 ca 16789 TPS CA1 23420 -0.361 12.010000
23421 si 16789 TPS Si 23421 1.1 28.085000
23422 ca 16789 TPS CA6 23422 -0.0753 12.010000
23423 ha 16789 TPS HH6 23423 0.1332 1.008000
23424 ca 16789 TPS CA5 23424 -0.1548 12.010000
23425 ha 16789 TPS HA5 23425 0.1282 1.008000
23426 ca 16789 TPS CA4 23426 -0.1028 12.010000
23427 ha 16789 TPS HA4 23427 0.1262 1.008000
23428 ca 16789 TPS CA3 23428 -0.1548 12.010000
23429 ha 16789 TPS HA3 23429 0.1282 1.008000
23430 ha 16790 TPS HA2 23430 0.1332 1.008000
23431 ca 16790 TPS CA2 23431 -0.0753 12.010000
23432 ca 16790 TPS CA1 23432 -0.361 12.010000
23433 si 16790 TPS Si 23433 1.1 28.085000
23434 ca 16790 TPS CA6 23434 -0.0753 12.010000
23435 ha 16790 TPS HH6 23435 0.1332 1.008000
23436 ca 16790 TPS CA5 23436 -0.1548 12.010000
23437 ha 16790 TPS HA5 23437 0.1282 1.008000
23438 ca 16790 TPS CA4 23438 -0.1028 12.010000
23439 ha 16790 TPS HA4 23439 0.1262 1.008000
23440 ca 16790 TPS CA3 23440 -0.1548 12.010000
23441 ha 16790 TPS HA3 23441 0.1282 1.008000
23442 ha 16791 TPS HA2 23442 0.1332 1.008000
23443 ca 16791 TPS CA2 23443 -0.0753 12.010000
23444 ca 16791 TPS CA1 23444 -0.361 12.010000
23445 si 16791 TPS Si 23445 1.1 28.085000
23446 ca 16791 TPS CA6 23446 -0.0753 12.010000
23447 ha 16791 TPS HH6 23447 0.1332 1.008000
23448 ca 16791 TPS CA5 23448 -0.1548 12.010000
23449 ha 16791 TPS HA5 23449 0.1282 1.008000
23450 ca 16791 TPS CA4 23450 -0.1028 12.010000
23451 ha 16791 TPS HA4 23451 0.1262 1.008000
23452 ca 16791 TPS CA3 23452 -0.1548 12.010000
23453 ha 16791 TPS HA3 23453 0.1282 1.008000
23454 ha 16792 TPS HA2 23454 0.1332 1.008000
23455 ca 16792 TPS CA2 23455 -0.0753 12.010000
23456 ca 16792 TPS CA1 23456 -0.361 12.010000
23457 si 16792 TPS Si 23457 1.1 28.085000
23458 ca 16792 TPS CA6 23458 -0.0753 12.010000
23459 ha 16792 TPS HH6 23459 0.1332 1.008000
23460 ca 16792 TPS CA5 23460 -0.1548 12.010000
23461 ha 16792 TPS HA5 23461 0.1282 1.008000
23462 ca 16792 TPS CA4 23462 -0.1028 12.010000
23463 ha 16792 TPS HA4 23463 0.1262 1.008000
23464 ca 16792 TPS CA3 23464 -0.1548 12.010000
23465 ha 16792 TPS HA3 23465 0.1282 1.008000
23466 ha 16793 TPS HA2 23466 0.1332 1.008000
23467 ca 16793 TPS CA2 23467 -0.0753 12.010000
23468 ca 16793 TPS CA1 23468 -0.361 12.010000
23469 si 16793 TPS Si 23469 1.1 28.085000
23470 ca 16793 TPS CA6 23470 -0.0753 12.010000
23471 ha 16793 TPS HH6 23471 0.1332 1.008000
23472 ca 16793 TPS CA5 23472 -0.1548 12.010000
23473 ha 16793 TPS HA5 23473 0.1282 1.008000
23474 ca 16793 TPS CA4 23474 -0.1028 12.010000
23475 ha 16793 TPS HA4 23475 0.1262 1.008000
23476 ca 16793 TPS CA3 23476 -0.1548 12.010000
23477 ha 16793 TPS HA3 23477 0.1282 1.008000
23478 ha 16794 TPS HA2 23478 0.1332 1.008000
23479 ca 16794 TPS CA2 23479 -0.0753 12.010000
23480 ca 16794 TPS CA1 23480 -0.361 12.010000
23481 si 16794 TPS Si 23481 1.1 28.085000
23482 ca 16794 TPS CA6 23482 -0.0753 12.010000
23483 ha 16794 TPS HH6 23483 0.1332 1.008000
23484 ca 16794 TPS CA5 23484 -0.1548 12.010000
23485 ha 16794 TPS HA5 23485 0.1282 1.008000
23486 ca 16794 TPS CA4 23486 -0.1028 12.010000
23487 ha 16794 TPS HA4 23487 0.1262 1.008000
23488 ca 16794 TPS CA3 23488 -0.1548 12.010000
23489 ha 16794 TPS HA3 23489 0.1282 1.008000
23490 ha 16795 TPS HA2 23490 0.1332 1.008000
23491 ca 16795 TPS CA2 23491 -0.0753 12.010000
23492 ca 16795 TPS CA1 23492 -0.361 12.010000
23493 si 16795 TPS Si 23493 1.1 28.085000
23494 ca 16795 TPS CA6 23494 -0.0753 12.010000
23495 ha 16795 TPS HH6 23495 0.1332 1.008000
23496 ca 16795 TPS CA5 23496 -0.1548 12.010000
23497 ha 16795 TPS HA5 23497 0.1282 1.008000
23498 ca 16795 TPS CA4 23498 -0.1028 12.010000
23499 ha 16795 TPS HA4 23499 0.1262 1.008000
23500 ca 16795 TPS CA3 23500 -0.1548 12.010000
23501 ha 16795 TPS HA3 23501 0.1282 1.008000
23502 ha 16796 TPS HA2 23502 0.1332 1.008000
23503 ca 16796 TPS CA2 23503 -0.0753 12.010000
23504 ca 16796 TPS CA1 23504 -0.361 12.010000
23505 si 16796 TPS Si 23505 1.1 28.085000
23506 ca 16796 TPS CA6 23506 -0.0753 12.010000
23507 ha 16796 TPS HH6 23507 0.1332 1.008000
23508 ca 16796 TPS CA5 23508 -0.1548 12.010000
23509 ha 16796 TPS HA5 23509 0.1282 1.008000
23510 ca 16796 TPS CA4 23510 -0.1028 12.010000
23511 ha 16796 TPS HA4 23511 0.1262 1.008000
23512 ca 16796 TPS CA3 23512 -0.1548 12.010000
23513 ha 16796 TPS HA3 23513 0.1282 1.008000
23514 ha 16797 TPS HA2 23514 0.1332 1.008000
23515 ca 16797 TPS CA2 23515 -0.0753 12.010000
23516 ca 16797 TPS CA1 23516 -0.361 12.010000
23517 si 16797 TPS Si 23517 1.1 28.085000
23518 ca 16797 TPS CA6 23518 -0.0753 12.010000
23519 ha 16797 TPS HH6 23519 0.1332 1.008000
23520 ca 16797 TPS CA5 23520 -0.1548 12.010000
23521 ha 16797 TPS HA5 23521 0.1282 1.008000
23522 ca 16797 TPS CA4 23522 -0.1028 12.010000
23523 ha 16797 TPS HA4 23523 0.1262 1.008000
23524 ca 16797 TPS CA3 23524 -0.1548 12.010000
23525 ha 16797 TPS HA3 23525 0.1282 1.008000
23526 ha 16798 TPS HA2 23526 0.1332 1.008000
23527 ca 16798 TPS CA2 23527 -0.0753 12.010000
23528 ca 16798 TPS CA1 23528 -0.361 12.010000
23529 si 16798 TPS Si 23529 1.1 28.085000
23530 ca 16798 TPS CA6 23530 -0.0753 12.010000
23531 ha 16798 TPS HH6 23531 0.1332 1.008000
23532 ca 16798 TPS CA5 23532 -0.1548 12.010000
23533 ha 16798 TPS HA5 23533 0.1282 1.008000
23534 ca 16798 TPS CA4 23534 -0.1028 12.010000
23535 ha 16798 TPS HA4 23535 0.1262 1.008000
23536 ca 16798 TPS CA3 23536 -0.1548 12.010000
23537 ha 16798 TPS HA3 23537 0.1282 1.008000
23538 ha 16799 TPS HA2 23538 0.1332 1.008000
23539 ca 16799 TPS CA2 23539 -0.0753 12.010000
23540 ca 16799 TPS CA1 23540 -0.361 12.010000
23541 si 16799 TPS Si 23541 1.1 28.085000
23542 ca 16799 TPS CA6 23542 -0.0753 12.010000
23543 ha 16799 TPS HH6 23543 0.1332 1.008000
23544 ca 16799 TPS CA5 23544 -0.1548 12.010000
23545 ha 16799 TPS HA5 23545 0.1282 1.008000
23546 ca 16799 TPS CA4 23546 -0.1028 12.010000
23547 ha 16799 TPS HA4 23547 0.1262 1.008000
23548 ca 16799 TPS CA3 23548 -0.1548 12.010000
23549 ha 16799 TPS HA3 23549 0.1282 1.008000
23550 ha 16800 TPS HA2 23550 0.1332 1.008000
23551 ca 16800 TPS CA2 23551 -0.0753 12.010000
23552 ca 16800 TPS CA1 23552 -0.361 12.010000
23553 si 16800 TPS Si 23553 1.1 28.085000
23554 ca 16800 TPS CA6 23554 -0.0753 12.010000
23555 ha 16800 TPS HH6 23555 0.1332 1.008000
23556 ca 16800 TPS CA5 23556 -0.1548 12.010000
23557 ha 16800 TPS HA5 23557 0.1282 1.008000
23558 ca 16800 TPS CA4 23558 -0.1028 12.010000
23559 ha 16800 TPS HA4 23559 0.1262 1.008000
23560 ca 16800 TPS CA3 23560 -0.1548 12.010000
23561 ha 16800 TPS HA3 23561 0.1282 1.008000
23562 ha 16801 TPS HA2 23562 0.1332 1.008000
23563 ca 16801 TPS CA2 23563 -0.0753 12.010000
23564 ca 16801 TPS CA1 23564 -0.361 12.010000
23565 si 16801 TPS Si 23565 1.1 28.085000
23566 ca 16801 TPS CA6 23566 -0.0753 12.010000
23567 ha 16801 TPS HH6 23567 0.1332 1.008000
23568 ca 16801 TPS CA5 23568 -0.1548 12.010000
23569 ha 16801 TPS HA5 23569 0.1282 1.008000
23570 ca 16801 TPS CA4 23570 -0.1028 12.010000
23571 ha 16801 TPS HA4 23571 0.1262 1.008000
23572 ca 16801 TPS CA3 23572 -0.1548 12.010000
23573 ha 16801 TPS HA3 23573 0.1282 1.008000
23574 ha 16802 TPS HA2 23574 0.1332 1.008000
23575 ca 16802 TPS CA2 23575 -0.0753 12.010000
23576 ca 16802 TPS CA1 23576 -0.361 12.010000
23577 si 16802 TPS Si 23577 1.1 28.085000
23578 ca 16802 TPS CA6 23578 -0.0753 12.010000
23579 ha 16802 TPS HH6 23579 0.1332 1.008000
23580 ca 16802 TPS CA5 23580 -0.1548 12.010000
23581 ha 16802 TPS HA5 23581 0.1282 1.008000
23582 ca 16802 TPS CA4 23582 -0.1028 12.010000
23583 ha 16802 TPS HA4 23583 0.1262 1.008000
23584 ca 16802 TPS CA3 23584 -0.1548 12.010000
23585 ha 16802 TPS HA3 23585 0.1282 1.008000
23586 ha 16803 TPS HA2 23586 0.1332 1.008000
23587 ca 16803 TPS CA2 23587 -0.0753 12.010000
23588 ca 16803 TPS CA1 23588 -0.361 12.010000
23589 si 16803 TPS Si 23589 1.1 28.085000
23590 ca 16803 TPS CA6 23590 -0.0753 12.010000
23591 ha 16803 TPS HH6 23591 0.1332 1.008000
23592 ca 16803 TPS CA5 23592 -0.1548 12.010000
23593 ha 16803 TPS HA5 23593 0.1282 1.008000
23594 ca 16803 TPS CA4 23594 -0.1028 12.010000
23595 ha 16803 TPS HA4 23595 0.1262 1.008000
23596 ca 16803 TPS CA3 23596 -0.1548 12.010000
23597 ha 16803 TPS HA3 23597 0.1282 1.008000
23598 ha 16804 TPS HA2 23598 0.1332 1.008000
23599 ca 16804 TPS CA2 23599 -0.0753 12.010000
23600 ca 16804 TPS CA1 23600 -0.361 12.010000
23601 si 16804 TPS Si 23601 1.1 28.085000
23602 ca 16804 TPS CA6 23602 -0.0753 12.010000
23603 ha 16804 TPS HH6 23603 0.1332 1.008000
23604 ca 16804 TPS CA5 23604 -0.1548 12.010000
23605 ha 16804 TPS HA5 23605 0.1282 1.008000
23606 ca 16804 TPS CA4 23606 -0.1028 12.010000
23607 ha 16804 TPS HA4 23607 0.1262 1.008000
23608 ca 16804 TPS CA3 23608 -0.1548 12.010000
23609 ha 16804 TPS HA3 23609 0.1282 1.008000
23610 ha 16805 TPS HA2 23610 0.1332 1.008000
23611 ca 16805 TPS CA2 23611 -0.0753 12.010000
23612 ca 16805 TPS CA1 23612 -0.361 12.010000
23613 si 16805 TPS Si 23613 1.1 28.085000
23614 ca 16805 TPS CA6 23614 -0.0753 12.010000
23615 ha 16805 TPS HH6 23615 0.1332 1.008000
23616 ca 16805 TPS CA5 23616 -0.1548 12.010000
23617 ha 16805 TPS HA5 23617 0.1282 1.008000
23618 ca 16805 TPS CA4 23618 -0.1028 12.010000
23619 ha 16805 TPS HA4 23619 0.1262 1.008000
23620 ca 16805 TPS CA3 23620 -0.1548 12.010000
23621 ha 16805 TPS HA3 23621 0.1282 1.008000
23622 ha 16806 TPS HA2 23622 0.1332 1.008000
23623 ca 16806 TPS CA2 23623 -0.0753 12.010000
23624 ca 16806 TPS CA1 23624 -0.361 12.010000
23625 si 16806 TPS Si 23625 1.1 28.085000
23626 ca 16806 TPS CA6 23626 -0.0753 12.010000
23627 ha 16806 TPS HH6 23627 0.1332 1.008000
23628 ca 16806 TPS CA5 23628 -0.1548 12.010000
23629 ha 16806 TPS HA5 23629 0.1282 1.008000
23630 ca 16806 TPS CA4 23630 -0.1028 12.010000
23631 ha 16806 TPS HA4 23631 0.1262 1.008000
23632 ca 16806 TPS CA3 23632 -0.1548 12.010000
23633 ha 16806 TPS HA3 23633 0.1282 1.008000
23634 ha 16807 TPS HA2 23634 0.1332 1.008000
23635 ca 16807 TPS CA2 23635 -0.0753 12.010000
23636 ca 16807 TPS CA1 23636 -0.361 12.010000
23637 si 16807 TPS Si 23637 1.1 28.085000
23638 ca 16807 TPS CA6 23638 -0.0753 12.010000
23639 ha 16807 TPS HH6 23639 0.1332 1.008000
23640 ca 16807 TPS CA5 23640 -0.1548 12.010000
23641 ha 16807 TPS HA5 23641 0.1282 1.008000
23642 ca 16807 TPS CA4 23642 -0.1028 12.010000
23643 ha 16807 TPS HA4 23643 0.1262 1.008000
23644 ca 16807 TPS CA3 23644 -0.1548 12.010000
23645 ha 16807 TPS HA3 23645 0.1282 1.008000
23646 ha 16808 TPS HA2 23646 0.1332 1.008000
23647 ca 16808 TPS CA2 23647 -0.0753 12.010000
23648 ca 16808 TPS CA1 23648 -0.361 12.010000
23649 si 16808 TPS Si 23649 1.1 28.085000
23650 ca 16808 TPS CA6 23650 -0.0753 12.010000
23651 ha 16808 TPS HH6 23651 0.1332 1.008000
23652 ca 16808 TPS CA5 23652 -0.1548 12.010000
23653 ha 16808 TPS HA5 23653 0.1282 1.008000
23654 ca 16808 TPS CA4 23654 -0.1028 12.010000
23655 ha 16808 TPS HA4 23655 0.1262 1.008000
23656 ca 16808 TPS CA3 23656 -0.1548 12.010000
23657 ha 16808 TPS HA3 23657 0.1282 1.008000
23658 ha 16809 TPS HA2 23658 0.1332 1.008000
23659 ca 16809 TPS CA2 23659 -0.0753 12.010000
23660 ca 16809 TPS CA1 23660 -0.361 12.010000
23661 si 16809 TPS Si 23661 1.1 28.085000
23662 ca 16809 TPS CA6 23662 -0.0753 12.010000
23663 ha 16809 TPS HH6 23663 0.1332 1.008000
23664 ca 16809 TPS CA5 23664 -0.1548 12.010000
23665 ha 16809 TPS HA5 23665 0.1282 1.008000
23666 ca 16809 TPS CA4 23666 -0.1028 12.010000
23667 ha 16809 TPS HA4 23667 0.1262 1.008000
23668 ca 16809 TPS CA3 23668 -0.1548 12.010000
23669 ha 16809 TPS HA3 23669 0.1282 1.008000
23670 ha 16810 TPS HA2 23670 0.1332 1.008000
23671 ca 16810 TPS CA2 23671 -0.0753 12.010000
23672 ca 16810 TPS CA1 23672 -0.361 12.010000
23673 si 16810 TPS Si 23673 1.1 28.085000
23674 ca 16810 TPS CA6 23674 -0.0753 12.010000
23675 ha 16810 TPS HH6 23675 0.1332 1.008000
23676 ca 16810 TPS CA5 23676 -0.1548 12.010000
23677 ha 16810 TPS HA5 23677 0.1282 1.008000
23678 ca 16810 TPS CA4 23678 -0.1028 12.010000
23679 ha 16810 TPS HA4 23679 0.1262 1.008000
23680 ca 16810 TPS CA3 23680 -0.1548 12.010000
23681 ha 16810 TPS HA3 23681 0.1282 1.008000
23682 ha 16811 TPS HA2 23682 0.1332 1.008000
23683 ca 16811 TPS CA2 23683 -0.0753 12.010000
23684 ca 16811 TPS CA1 23684 -0.361 12.010000
23685 si 16811 TPS Si 23685 1.1 28.085000
23686 ca 16811 TPS CA6 23686 -0.0753 12.010000
23687 ha 16811 TPS HH6 23687 0.1332 1.008000
23688 ca 16811 TPS CA5 23688 -0.1548 12.010000
23689 ha 16811 TPS HA5 23689 0.1282 1.008000
23690 ca 16811 TPS CA4 23690 -0.1028 12.010000
23691 ha 16811 TPS HA4 23691 0.1262 1.008000
23692 ca 16811 TPS CA3 23692 -0.1548 12.010000
23693 ha 16811 TPS HA3 23693 0.1282 1.008000
23694 ha 16812 TPS HA2 23694 0.1332 1.008000
23695 ca 16812 TPS CA2 23695 -0.0753 12.010000
23696 ca 16812 TPS CA1 23696 -0.361 12.010000
23697 si 16812 TPS Si 23697 1.1 28.085000
23698 ca 16812 TPS CA6 23698 -0.0753 12.010000
23699 ha 16812 TPS HH6 23699 0.1332 1.008000
23700 ca 16812 TPS CA5 23700 -0.1548 12.010000
23701 ha 16812 TPS HA5 23701 0.1282 1.008000
23702 ca 16812 TPS CA4 23702 -0.1028 12.010000
23703 ha 16812 TPS HA4 23703 0.1262 1.008000
23704 ca 16812 TPS CA3 23704 -0.1548 12.010000
23705 ha 16812 TPS HA3 23705 0.1282 1.008000
23706 ha 16813 TPS HA2 23706 0.1332 1.008000
23707 ca 16813 TPS CA2 23707 -0.0753 12.010000
23708 ca 16813 TPS CA1 23708 -0.361 12.010000
23709 si 16813 TPS Si 23709 1.1 28.085000
23710 ca 16813 TPS CA6 23710 -0.0753 12.010000
23711 ha 16813 TPS HH6 23711 0.1332 1.008000
23712 ca 16813 TPS CA5 23712 -0.1548 12.010000
23713 ha 16813 TPS HA5 23713 0.1282 1.008000
23714 ca 16813 TPS CA4 23714 -0.1028 12.010000
23715 ha 16813 TPS HA4 23715 0.1262 1.008000
23716 ca 16813 TPS CA3 23716 -0.1548 12.010000
23717 ha 16813 TPS HA3 23717 0.1282 1.008000
23718 ha 16814 TPS HA2 23718 0.1332 1.008000
23719 ca 16814 TPS CA2 23719 -0.0753 12.010000
23720 ca 16814 TPS CA1 23720 -0.361 12.010000
23721 si 16814 TPS Si 23721 1.1 28.085000
23722 ca 16814 TPS CA6 23722 -0.0753 12.010000
23723 ha 16814 TPS HH6 23723 0.1332 1.008000
23724 ca 16814 TPS CA5 23724 -0.1548 12.010000
23725 ha 16814 TPS HA5 23725 0.1282 1.008000
23726 ca 16814 TPS CA4 23726 -0.1028 12.010000
23727 ha 16814 TPS HA4 23727 0.1262 1.008000
23728 ca 16814 TPS CA3 23728 -0.1548 12.010000
23729 ha 16814 TPS HA3 23729 0.1282 1.008000
23730 ha 16815 TPS HA2 23730 0.1332 1.008000
23731 ca 16815 TPS CA2 23731 -0.0753 12.010000
23732 ca 16815 TPS CA1 23732 -0.361 12.010000
23733 si 16815 TPS Si 23733 1.1 28.085000
23734 ca 16815 TPS CA6 23734 -0.0753 12.010000
23735 ha 16815 TPS HH6 23735 0.1332 1.008000
23736 ca 16815 TPS CA5 23736 -0.1548 12.010000
23737 ha 16815 TPS HA5 23737 0.1282 1.008000
23738 ca 16815 TPS CA4 23738 -0.1028 12.010000
23739 ha 16815 TPS HA4 23739 0.1262 1.008000
23740 ca 16815 TPS CA3 23740 -0.1548 12.010000
23741 ha 16815 TPS HA3 23741 0.1282 1.008000
23742 ha 16816 TPS HA2 23742 0.1332 1.008000
23743 ca 16816 TPS CA2 23743 -0.0753 12.010000
23744 ca 16816 TPS CA1 23744 -0.361 12.010000
23745 si 16816 TPS Si 23745 1.1 28.085000
23746 ca 16816 TPS CA6 23746 -0.0753 12.010000
23747 ha 16816 TPS HH6 23747 0.1332 1.008000
23748 ca 16816 TPS CA5 23748 -0.1548 12.010000
23749 ha 16816 TPS HA5 23749 0.1282 1.008000
23750 ca 16816 TPS CA4 23750 -0.1028 12.010000
23751 ha 16816 TPS HA4 23751 0.1262 1.008000
23752 ca 16816 TPS CA3 23752 -0.1548 12.010000
23753 ha 16816 TPS HA3 23753 0.1282 1.008000
23754 ha 16817 TPS HA2 23754 0.1332 1.008000
23755 ca 16817 TPS CA2 23755 -0.0753 12.010000
23756 ca 16817 TPS CA1 23756 -0.361 12.010000
23757 si 16817 TPS Si 23757 1.1 28.085000
23758 ca 16817 TPS CA6 23758 -0.0753 12.010000
23759 ha 16817 TPS HH6 23759 0.1332 1.008000
23760 ca 16817 TPS CA5 23760 -0.1548 12.010000
23761 ha 16817 TPS HA5 23761 0.1282 1.008000
23762 ca 16817 TPS CA4 23762 -0.1028 12.010000
23763 ha 16817 TPS HA4 23763 0.1262 1.008000
23764 ca 16817 TPS CA3 23764 -0.1548 12.010000
23765 ha 16817 TPS HA3 23765 0.1282 1.008000
23766 ha 16818 TPS HA2 23766 0.1332 1.008000
23767 ca 16818 TPS CA2 23767 -0.0753 12.010000
23768 ca 16818 TPS CA1 23768 -0.361 12.010000
23769 si 16818 TPS Si 23769 1.1 28.085000
23770 ca 16818 TPS CA6 23770 -0.0753 12.010000
23771 ha 16818 TPS HH6 23771 0.1332 1.008000
23772 ca 16818 TPS CA5 23772 -0.1548 12.010000
23773 ha 16818 TPS HA5 23773 0.1282 1.008000
23774 ca 16818 TPS CA4 23774 -0.1028 12.010000
23775 ha 16818 TPS HA4 23775 0.1262 1.008000
23776 ca 16818 TPS CA3 23776 -0.1548 12.010000
23777 ha 16818 TPS HA3 23777 0.1282 1.008000
23778 ha 16819 TPS HA2 23778 0.1332 1.008000
23779 ca 16819 TPS CA2 23779 -0.0753 12.010000
23780 ca 16819 TPS CA1 23780 -0.361 12.010000
23781 si 16819 TPS Si 23781 1.1 28.085000
23782 ca 16819 TPS CA6 23782 -0.0753 12.010000
23783 ha 16819 TPS HH6 23783 0.1332 1.008000
23784 ca 16819 TPS CA5 23784 -0.1548 12.010000
23785 ha 16819 TPS HA5 23785 0.1282 1.008000
23786 ca 16819 TPS CA4 23786 -0.1028 12.010000
23787 ha 16819 TPS HA4 23787 0.1262 1.008000
23788 ca 16819 TPS CA3 23788 -0.1548 12.010000
23789 ha 16819 TPS HA3 23789 0.1282 1.008000
23790 ha 16820 TPS HA2 23790 0.1332 1.008000
23791 ca 16820 TPS CA2 23791 -0.0753 12.010000
23792 ca 16820 TPS CA1 23792 -0.361 12.010000
23793 si 16820 TPS Si 23793 1.1 28.085000
23794 ca 16820 TPS CA6 23794 -0.0753 12.010000
23795 ha 16820 TPS HH6 23795 0.1332 1.008000
23796 ca 16820 TPS CA5 23796 -0.1548 12.010000
23797 ha 16820 TPS HA5 23797 0.1282 1.008000
23798 ca 16820 TPS CA4 23798 -0.1028 12.010000
23799 ha 16820 TPS HA4 23799 0.1262 1.008000
23800 ca 16820 TPS CA3 23800 -0.1548 12.010000
23801 ha 16820 TPS HA3 23801 0.1282 1.008000
23802 ha 16821 TPS HA2 23802 0.1332 1.008000
23803 ca 16821 TPS CA2 23803 -0.0753 12.010000
23804 ca 16821 TPS CA1 23804 -0.361 12.010000
23805 si 16821 TPS Si 23805 1.1 28.085000
23806 ca 16821 TPS CA6 23806 -0.0753 12.010000
23807 ha 16821 TPS HH6 23807 0.1332 1.008000
23808 ca 16821 TPS CA5 23808 -0.1548 12.010000
23809 ha 16821 TPS HA5 23809 0.1282 1.008000
23810 ca 16821 TPS CA4 23810 -0.1028 12.010000
23811 ha 16821 TPS HA4 23811 0.1262 1.008000
23812 ca 16821 TPS CA3 23812 -0.1548 12.010000
23813 ha 16821 TPS HA3 23813 0.1282 1.008000
23814 ha 16822 TPS HA2 23814 0.1332 1.008000
23815 ca 16822 TPS CA2 23815 -0.0753 12.010000
23816 ca 16822 TPS CA1 23816 -0.361 12.010000
23817 si 16822 TPS Si 23817 1.1 28.085000
23818 ca 16822 TPS CA6 23818 -0.0753 12.010000
23819 ha 16822 TPS HH6 23819 0.1332 1.008000
23820 ca 16822 TPS CA5 23820 -0.1548 12.010000
23821 ha 16822 TPS HA5 23821 0.1282 1.008000
23822 ca 16822 TPS CA4 23822 -0.1028 12.010000
23823 ha 16822 TPS HA4 23823 0.1262 1.008000
23824 ca 16822 TPS CA3 23824 -0.1548 12.010000
23825 ha 16822 TPS HA3 23825 0.1282 1.008000
23826 ha 16823 TPS HA2 23826 0.1332 1.008000
23827 ca 16823 TPS CA2 23827 -0.0753 12.010000
23828 ca 16823 TPS CA1 23828 -0.361 12.010000
23829 si 16823 TPS Si 23829 1.1 28.085000
23830 ca 16823 TPS CA6 23830 -0.0753 12.010000
23831 ha 16823 TPS HH6 23831 0.1332 1.008000
23832 ca 16823 TPS CA5 23832 -0.1548 12.010000
23833 ha 16823 TPS HA5 23833 0.1282 1.008000
23834 ca 16823 TPS CA4 23834 -0.1028 12.010000
23835 ha 16823 TPS HA4 23835 0.1262 1.008000
23836 ca 16823 TPS CA3 23836 -0.1548 12.010000
23837 ha 16823 TPS HA3 23837 0.1282 1.008000
23838 ha 16824 TPS HA2 23838 0.1332 1.008000
23839 ca 16824 TPS CA2 23839 -0.0753 12.010000
23840 ca 16824 TPS CA1 23840 -0.361 12.010000
23841 si 16824 TPS Si 23841 1.1 28.085000
23842 ca 16824 TPS CA6 23842 -0.0753 12.010000
23843 ha 16824 TPS HH6 23843 0.1332 1.008000
23844 ca 16824 TPS CA5 23844 -0.1548 12.010000
23845 ha 16824 TPS HA5 23845 0.1282 1.008000
23846 ca 16824 TPS CA4 23846 -0.1028 12.010000
23847 ha 16824 TPS HA4 23847 0.1262 1.008000
23848 ca 16824 TPS CA3 23848 -0.1548 12.010000
23849 ha 16824 TPS HA3 23849 0.1282 1.008000
23850 ha 16825 TPS HA2 23850 0.1332 1.008000
23851 ca 16825 TPS CA2 23851 -0.0753 12.010000
23852 ca 16825 TPS CA1 23852 -0.361 12.010000
23853 si 16825 TPS Si 23853 1.1 28.085000
23854 ca 16825 TPS CA6 23854 -0.0753 12.010000
23855 ha 16825 TPS HH6 23855 0.1332 1.008000
23856 ca 16825 TPS CA5 23856 -0.1548 12.010000
23857 ha 16825 TPS HA5 23857 0.1282 1.008000
23858 ca 16825 TPS CA4 23858 -0.1028 12.010000
23859 ha 16825 TPS HA4 23859 0.1262 1.008000
23860 ca 16825 TPS CA3 23860 -0.1548 12.010000
23861 ha 16825 TPS HA3 23861 0.1282 1.008000
23862 ha 16826 TPS HA2 23862 0.1332 1.008000
23863 ca 16826 TPS CA2 23863 -0.0753 12.010000
23864 ca 16826 TPS CA1 23864 -0.361 12.010000
23865 si 16826 TPS Si 23865 1.1 28.085000
23866 ca 16826 TPS CA6 23866 -0.0753 12.010000
23867 ha 16826 TPS HH6 23867 0.1332 1.008000
23868 ca 16826 TPS CA5 23868 -0.1548 12.010000
23869 ha 16826 TPS HA5 23869 0.1282 1.008000
23870 ca 16826 TPS CA4 23870 -0.1028 12.010000
23871 ha 16826 TPS HA4 23871 0.1262 1.008000
23872 ca 16826 TPS CA3 23872 -0.1548 12.010000
23873 ha 16826 TPS HA3 23873 0.1282 1.008000
23874 ha 16827 TPS HA2 23874 0.1332 1.008000
23875 ca 16827 TPS CA2 23875 -0.0753 12.010000
23876 ca 16827 TPS CA1 23876 -0.361 12.010000
23877 si 16827 TPS Si 23877 1.1 28.085000
23878 ca 16827 TPS CA6 23878 -0.0753 12.010000
23879 ha 16827 TPS HH6 23879 0.1332 1.008000
23880 ca 16827 TPS CA5 23880 -0.1548 12.010000
23881 ha 16827 TPS HA5 23881 0.1282 1.008000
23882 ca 16827 TPS CA4 23882 -0.1028 12.010000
23883 ha 16827 TPS HA4 23883 0.1262 1.008000
23884 ca 16827 TPS CA3 23884 -0.1548 12.010000
23885 ha 16827 TPS HA3 23885 0.1282 1.008000
23886 SI 16828 SL Si1 23886 1.100000 28.08600
23887 OA 16828 SL O1 23887 -0.675000 15.99940
23888 HG 16828 SL H1 23888 0.400000 2.01600
23889 SI 16829 SL Si1 23889 1.100000 28.08600
23890 OA 16829 SL O1 23890 -0.675000 15.99940
23891 HG 16829 SL H1 23891 0.400000 2.01600
23892 SI 16830 SL Si1 23892 1.100000 28.08600
23893 OA 16830 SL O1 23893 -0.675000 15.99940
23894 HG 16830 SL H1 23894 0.400000 2.01600
23895 SI 16831 SL Si1 23895 1.100000 28.08600
23896 OA 16831 SL O1 23896 -0.675000 15.99940
23897 HG 16831 SL H1 23897 0.400000 2.01600
23898 SI 16832 SL Si1 23898 1.100000 28.08600
23899 OA 16832 SL O1 23899 -0.675000 15.99940
23900 HG 16832 SL H1 23900 0.400000 2.01600
23901 SI 16833 SL Si1 23901 1.100000 28.08600
23902 OA 16833 SL O1 23902 -0.675000 15.99940
23903 HG 16833 SL H1 23903 0.400000 2.01600
23904 SI 16834 SL Si1 23904 1.100000 28.08600
23905 OA 16834 SL O1 23905 -0.675000 15.99940
23906 HG 16834 SL H1 23906 0.400000 2.01600
23907 SI 16835 SL Si1 23907 1.100000 28.08600
23908 OA 16835 SL O1 23908 -0.675000 15.99940
23909 HG 16835 SL H1 23909 0.400000 2.01600
23910 SI 16836 SL Si1 23910 1.100000 28.08600
23911 OA 16836 SL O1 23911 -0.675000 15.99940
23912 HG 16836 SL H1 23912 0.400000 2.01600
23913 SI 16837 SL Si1 23913 1.100000 28.08600
23914 OA 16837 SL O1 23914 -0.675000 15.99940
23915 HG 16837 SL H1 23915 0.400000 2.01600
23916 SI 16838 SL Si1 23916 1.100000 28.08600
23917 OA 16838 SL O1 23917 -0.675000 15.99940
23918 HG 16838 SL H1 23918 0.400000 2.01600
23919 SI 16839 SL Si1 23919 1.100000 28.08600
23920 OA 16839 SL O1 23920 -0.675000 15.99940
23921 HG 16839 SL H1 23921 0.400000 2.01600
23922 SI 16840 SL Si1 23922 1.100000 28.08600
23923 OA 16840 SL O1 23923 -0.675000 15.99940
23924 HG 16840 SL H1 23924 0.400000 2.01600
23925 SI 16841 SL Si1 23925 1.100000 28.08600
23926 OA 16841 SL O1 23926 -0.675000 15.99940
23927 HG 16841 SL H1 23927 0.400000 2.01600
23928 SI 16842 SL Si1 23928 1.100000 28.08600
23929 OA 16842 SL O1 23929 -0.675000 15.99940
23930 HG 16842 SL H1 23930 0.400000 2.01600
23931 SI 16843 SL Si1 23931 1.100000 28.08600
23932 OA 16843 SL O1 23932 -0.675000 15.99940
23933 HG 16843 SL H1 23933 0.400000 2.01600
23934 SI 16844 SL Si1 23934 1.100000 28.08600
23935 OA 16844 SL O1 23935 -0.675000 15.99940
23936 HG 16844 SL H1 23936 0.400000 2.01600
23937 SI 16845 SL Si1 23937 1.100000 28.08600
23938 OA 16845 SL O1 23938 -0.675000 15.99940
23939 HG 16845 SL H1 23939 0.400000 2.01600
23940 SI 16846 SL Si1 23940 1.100000 28.08600
23941 OA 16846 SL O1 23941 -0.675000 15.99940
23942 HG 16846 SL H1 23942 0.400000 2.01600
23943 SI 16847 SL Si1 23943 1.100000 28.08600
23944 OA 16847 SL O1 23944 -0.675000 15.99940
23945 HG 16847 SL H1 23945 0.400000 2.01600
23946 SI 16848 SL Si1 23946 1.100000 28.08600
23947 OA 16848 SL O1 23947 -0.675000 15.99940
23948 HG 16848 SL H1 23948 0.400000 2.01600
23949 SI 16849 SL Si1 23949 1.100000 28.08600
23950 OA 16849 SL O1 23950 -0.675000 15.99940
23951 HG 16849 SL H1 23951 0.400000 2.01600
23952 SI 16850 SL Si1 23952 1.100000 28.08600
23953 OA 16850 SL O1 23953 -0.675000 15.99940
23954 HG 16850 SL H1 23954 0.400000 2.01600
23955 SI 16851 SL Si1 23955 1.100000 28.08600
23956 OA 16851 SL O1 23956 -0.675000 15.99940
23957 HG 16851 SL H1 23957 0.400000 2.01600
23958 SI 16852 SL Si1 23958 1.100000 28.08600
23959 OA 16852 SL O1 23959 -0.675000 15.99940
23960 HG 16852 SL H1 23960 0.400000 2.01600
23961 SI 16853 SL Si1 23961 1.100000 28.08600
23962 OA 16853 SL O1 23962 -0.675000 15.99940
23963 HG 16853 SL H1 23963 0.400000 2.01600
23964 SI 16854 SL Si1 23964 1.100000 28.08600
23965 OA 16854 SL O1 23965 -0.675000 15.99940
23966 HG 16854 SL H1 23966 0.400000 2.01600
23967 SI 16855 SL Si1 23967 1.100000 28.08600
23968 OA 16855 SL O1 23968 -0.675000 15.99940
23969 HG 16855 SL H1 23969 0.400000 2.01600
23970 SI 16856 SL Si1 23970 1.100000 28.08600
23971 OA 16856 SL O1 23971 -0.675000 15.99940
23972 HG 16856 SL H1 23972 0.400000 2.01600
23973 SI 16857 SL Si1 23973 1.100000 28.08600
23974 OA 16857 SL O1 23974 -0.675000 15.99940
23975 HG 16857 SL H1 23975 0.400000 2.01600
23976 SI 16858 SL Si1 23976 1.100000 28.08600
23977 OA 16858 SL O1 23977 -0.675000 15.99940
23978 HG 16858 SL H1 23978 0.400000 2.01600
23979 SI 16859 SL Si1 23979 1.100000 28.08600
23980 OA 16859 SL O1 23980 -0.675000 15.99940
23981 HG 16859 SL H1 23981 0.400000 2.01600
23982 SI 16860 SL Si1 23982 1.100000 28.08600
23983 OA 16860 SL O1 23983 -0.675000 15.99940
23984 HG 16860 SL H1 23984 0.400000 2.01600
23985 SI 16861 SL Si1 23985 1.100000 28.08600
23986 OA 16861 SL O1 23986 -0.675000 15.99940
23987 HG 16861 SL H1 23987 0.400000 2.01600
23988 SI 16862 SL Si1 23988 1.100000 28.08600
23989 OA 16862 SL O1 23989 -0.675000 15.99940
23990 HG 16862 SL H1 23990 0.400000 2.01600
23991 SI 16863 SL Si1 23991 1.100000 28.08600
23992 OA 16863 SL O1 23992 -0.675000 15.99940
23993 HG 16863 SL H1 23993 0.400000 2.01600
23994 SI 16864 SL Si1 23994 1.100000 28.08600
23995 OA 16864 SL O1 23995 -0.675000 15.99940
23996 HG 16864 SL H1 23996 0.400000 2.01600
23997 SI 16865 SL Si1 23997 1.100000 28.08600
23998 OA 16865 SL O1 23998 -0.675000 15.99940
23999 HG 16865 SL H1 23999 0.400000 2.01600
24000 SI 16866 SL Si1 24000 1.100000 28.08600
24001 OA 16866 SL O1 24001 -0.675000 15.99940
24002 HG 16866 SL H1 24002 0.400000 2.01600
24003 SI 16867 SL Si1 24003 1.100000 28.08600
24004 OA 16867 SL O1 24004 -0.675000 15.99940
24005 HG 16867 SL H1 24005 0.400000 2.01600
24006 SI 16868 SL Si1 24006 1.100000 28.08600
24007 OA 16868 SL O1 24007 -0.675000 15.99940
24008 HG 16868 SL H1 24008 0.400000 2.01600
24009 SI 16869 SL Si1 24009 1.100000 28.08600
24010 OA 16869 SL O1 24010 -0.675000 15.99940
24011 HG 16869 SL H1 24011 0.400000 2.01600
24012 SI 16870 SL Si1 24012 1.100000 28.08600
24013 OA 16870 SL O1 24013 -0.675000 15.99940
24014 HG 16870 SL H1 24014 0.400000 2.01600
24015 SI 16871 SL Si1 24015 1.100000 28.08600
24016 OA 16871 SL O1 24016 -0.675000 15.99940
24017 HG 16871 SL H1 24017 0.400000 2.01600
24018 SI 16872 SL Si1 24018 1.100000 28.08600
24019 OA 16872 SL O1 24019 -0.675000 15.99940
24020 HG 16872 SL H1 24020 0.400000 2.01600
24021 SI 16873 SL Si1 24021 1.100000 28.08600
24022 OA 16873 SL O1 24022 -0.675000 15.99940
24023 HG 16873 SL H1 24023 0.400000 2.01600
24024 SI 16874 SL Si1 24024 1.100000 28.08600
24025 OA 16874 SL O1 24025 -0.675000 15.99940
24026 HG 16874 SL H1 24026 0.400000 2.01600
24027 SI 16875 SL Si1 24027 1.100000 28.08600
24028 OA 16875 SL O1 24028 -0.675000 15.99940
24029 HG 16875 SL H1 24029 0.400000 2.01600
24030 SI 16876 SL Si1 24030 1.100000 28.08600
24031 OA 16876 SL O1 24031 -0.675000 15.99940
24032 HG 16876 SL H1 24032 0.400000 2.01600
24033 SI 16877 SL Si1 24033 1.100000 28.08600
24034 OA 16877 SL O1 24034 -0.675000 15.99940
24035 HG 16877 SL H1 24035 0.400000 2.01600
24036 SI 16878 SL Si1 24036 1.100000 28.08600
24037 OA 16878 SL O1 24037 -0.675000 15.99940
24038 HG 16878 SL H1 24038 0.400000 2.01600
24039 SI 16879 SL Si1 24039 1.100000 28.08600
24040 OA 16879 SL O1 24040 -0.675000 15.99940
24041 HG 16879 SL H1 24041 0.400000 2.01600
24042 SI 16880 SL Si1 24042 1.100000 28.08600
24043 OA 16880 SL O1 24043 -0.675000 15.99940
24044 HG 16880 SL H1 24044 0.400000 2.01600
24045 SI 16881 SL Si1 24045 1.100000 28.08600
24046 OA 16881 SL O1 24046 -0.675000 15.99940
24047 HG 16881 SL H1 24047 0.400000 2.01600
24048 SI 16882 SL Si1 24048 1.100000 28.08600
24049 OA 16882 SL O1 24049 -0.675000 15.99940
24050 HG 16882 SL H1 24050 0.400000 2.01600
24051 SI 16883 SL Si1 24051 1.100000 28.08600
24052 OA 16883 SL O1 24052 -0.675000 15.99940
24053 HG 16883 SL H1 24053 0.400000 2.01600
24054 SI 16884 SL Si1 24054 1.100000 28.08600
24055 OA 16884 SL O1 24055 -0.675000 15.99940
24056 HG 16884 SL H1 24056 0.400000 2.01600
24057 SI 16885 SL Si1 24057 1.100000 28.08600
24058 OA 16885 SL O1 24058 -0.675000 15.99940
24059 HG 16885 SL H1 24059 0.400000 2.01600
24060 SI 16886 SL Si1 24060 1.100000 28.08600
24061 OA 16886 SL O1 24061 -0.675000 15.99940
24062 HG 16886 SL H1 24062 0.400000 2.01600
24063 SI 16887 SL Si1 24063 1.100000 28.08600
24064 OA 16887 SL O1 24064 -0.675000 15.99940
24065 HG 16887 SL H1 24065 0.400000 2.01600
24066 SI 16888 SL Si1 24066 1.100000 28.08600
24067 OA 16888 SL O1 24067 -0.675000 15.99940
24068 HG 16888 SL H1 24068 0.400000 2.01600
24069 SI 16889 SL Si1 24069 1.100000 28.08600
24070 OA 16889 SL O1 24070 -0.675000 15.99940
24071 HG 16889 SL H1 24071 0.400000 2.01600
24072 SI 16890 SL Si1 24072 1.100000 28.08600
24073 OA 16890 SL O1 24073 -0.675000 15.99940
24074 HG 16890 SL H1 24074 0.400000 2.01600
24075 SI 16891 SL Si1 24075 1.100000 28.08600
24076 OA 16891 SL O1 24076 -0.675000 15.99940
24077 HG 16891 SL H1 24077 0.400000 2.01600
24078 SI 16892 SL Si1 24078 1.100000 28.08600
24079 OA 16892 SL O1 24079 -0.675000 15.99940
24080 HG 16892 SL H1 24080 0.400000 2.01600
24081 SI 16893 SL Si1 24081 1.100000 28.08600
24082 OA 16893 SL O1 24082 -0.675000 15.99940
24083 HG 16893 SL H1 24083 0.400000 2.01600
24084 SI 16894 SL Si1 24084 1.100000 28.08600
24085 OA 16894 SL O1 24085 -0.675000 15.99940
24086 HG 16894 SL H1 24086 0.400000 2.01600
24087 SI 16895 SL Si1 24087 1.100000 28.08600
24088 OA 16895 SL O1 24088 -0.675000 15.99940
24089 HG 16895 SL H1 24089 0.400000 2.01600
24090 SI 16896 SL Si1 24090 1.100000 28.08600
24091 OA 16896 SL O1 24091 -0.675000 15.99940
24092 HG 16896 SL H1 24092 0.400000 2.01600
24093 SI 16897 SL Si1 24093 1.100000 28.08600
24094 OA 16897 SL O1 24094 -0.675000 15.99940
24095 HG 16897 SL H1 24095 0.400000 2.01600
24096 SI 16898 SL Si1 24096 1.100000 28.08600
24097 OA 16898 SL O1 24097 -0.675000 15.99940
24098 HG 16898 SL H1 24098 0.400000 2.01600
24099 SI 16899 SL Si1 24099 1.100000 28.08600
24100 OA 16899 SL O1 24100 -0.675000 15.99940
24101 HG 16899 SL H1 24101 0.400000 2.01600
24102 SI 16900 SL Si1 24102 1.100000 28.08600
24103 OA 16900 SL O1 24103 -0.675000 15.99940
24104 HG 16900 SL H1 24104 0.400000 2.01600
24105 SI 16901 SL Si1 24105 1.100000 28.08600
24106 OA 16901 SL O1 24106 -0.675000 15.99940
24107 HG 16901 SL H1 24107 0.400000 2.01600
24108 SI 16902 SL Si1 24108 1.100000 28.08600
24109 OA 16902 SL O1 24109 -0.675000 15.99940
24110 HG 16902 SL H1 24110 0.400000 2.01600
24111 SI 16903 SL Si1 24111 1.100000 28.08600
24112 OA 16903 SL O1 24112 -0.675000 15.99940
24113 HG 16903 SL H1 24113 0.400000 2.01600
24114 SI 16904 SL Si1 24114 1.100000 28.08600
24115 OA 16904 SL O1 24115 -0.675000 15.99940
24116 HG 16904 SL H1 24116 0.400000 2.01600
24117 SI 16905 SL Si1 24117 1.100000 28.08600
24118 OA 16905 SL O1 24118 -0.675000 15.99940
24119 HG 16905 SL H1 24119 0.400000 2.01600
24120 SI 16906 SL Si1 24120 1.100000 28.08600
24121 OA 16906 SL O1 24121 -0.675000 15.99940
24122 HG 16906 SL H1 24122 0.400000 2.01600
24123 SI 16907 SL Si1 24123 1.100000 28.08600
24124 OA 16907 SL O1 24124 -0.675000 15.99940
24125 HG 16907 SL H1 24125 0.400000 2.01600
24126 SI 16908 SL Si1 24126 1.100000 28.08600
24127 OA 16908 SL O1 24127 -0.675000 15.99940
24128 HG 16908 SL H1 24128 0.400000 2.01600
24129 SI 16909 SL Si1 24129 1.100000 28.08600
24130 OA 16909 SL O1 24130 -0.675000 15.99940
24131 HG 16909 SL H1 24131 0.400000 2.01600
24132 SI 16910 SL Si1 24132 1.100000 28.08600
24133 OA 16910 SL O1 24133 -0.675000 15.99940
24134 HG 16910 SL H1 24134 0.400000 2.01600
24135 SI 16911 SL Si1 24135 1.100000 28.08600
24136 OA 16911 SL O1 24136 -0.675000 15.99940
24137 HG 16911 SL H1 24137 0.400000 2.01600
24138 SI 16912 SL Si1 24138 1.100000 28.08600
24139 OA 16912 SL O1 24139 -0.675000 15.99940
24140 HG 16912 SL H1 24140 0.400000 2.01600
24141 SI 16913 SL Si1 24141 1.100000 28.08600
24142 OA 16913 SL O1 24142 -0.675000 15.99940
24143 HG 16913 SL H1 24143 0.400000 2.01600
24144 SI 16914 SL Si1 24144 1.100000 28.08600
24145 OA 16914 SL O1 24145 -0.675000 15.99940
24146 HG 16914 SL H1 24146 0.400000 2.01600
24147 SI 16915 SL Si1 24147 1.100000 28.08600
24148 OA 16915 SL O1 24148 -0.675000 15.99940
24149 HG 16915 SL H1 24149 0.400000 2.01600
24150 SI 16916 SL Si1 24150 1.100000 28.08600
24151 OA 16916 SL O1 24151 -0.675000 15.99940
24152 HG 16916 SL H1 24152 0.400000 2.01600
24153 SI 16917 SL Si1 24153 1.100000 28.08600
24154 OA 16917 SL O1 24154 -0.675000 15.99940
24155 HG 16917 SL H1 24155 0.400000 2.01600
24156 SI 16918 SL Si1 24156 1.100000 28.08600
24157 OA 16918 SL O1 24157 -0.675000 15.99940
24158 HG 16918 SL H1 24158 0.400000 2.01600
24159 SI 16919 SL Si1 24159 1.100000 28.08600
24160 OA 16919 SL O1 24160 -0.675000 15.99940
24161 HG 16919 SL H1 24161 0.400000 2.01600
24162 SI 16920 SL Si1 24162 1.100000 28.08600
24163 OA 16920 SL O1 24163 -0.675000 15.99940
24164 HG 16920 SL H1 24164 0.400000 2.01600
24165 SI 16921 SL Si1 24165 1.100000 28.08600
24166 OA 16921 SL O1 24166 -0.675000 15.99940
24167 HG 16921 SL H1 24167 0.400000 2.01600
24168 SI 16922 SL Si1 24168 1.100000 28.08600
24169 OA 16922 SL O1 24169 -0.675000 15.99940
24170 HG 16922 SL H1 24170 0.400000 2.01600
24171 SI 16923 SL Si1 24171 1.100000 28.08600
24172 OA 16923 SL O1 24172 -0.675000 15.99940
24173 HG 16923 SL H1 24173 0.400000 2.01600
24174 SI 16924 SL Si1 24174 1.100000 28.08600
24175 OA 16924 SL O1 24175 -0.675000 15.99940
24176 HG 16924 SL H1 24176 0.400000 2.01600
24177 SI 16925 SL Si1 24177 1.100000 28.08600
24178 OA 16925 SL O1 24178 -0.675000 15.99940
24179 HG 16925 SL H1 24179 0.400000 2.01600
24180 SI 16926 SL Si1 24180 1.100000 28.08600
24181 OA 16926 SL O1 24181 -0.675000 15.99940
24182 HG 16926 SL H1 24182 0.400000 2.01600
24183 SI 16927 SL Si1 24183 1.100000 28.08600
24184 OA 16927 SL O1 24184 -0.675000 15.99940
24185 HG 16927 SL H1 24185 0.400000 2.01600
24186 SI 16928 SL Si1 24186 1.100000 28.08600
24187 OA 16928 SL O1 24187 -0.675000 15.99940
24188 HG 16928 SL H1 24188 0.400000 2.01600
24189 SI 16929 SL Si1 24189 1.100000 28.08600
24190 OA 16929 SL O1 24190 -0.675000 15.99940
24191 HG 16929 SL H1 24191 0.400000 2.01600
24192 SI 16930 SL Si1 24192 1.100000 28.08600
24193 OA 16930 SL O1 24193 -0.675000 15.99940
24194 HG 16930 SL H1 24194 0.400000 2.01600
24195 SI 16931 SL Si1 24195 1.100000 28.08600
24196 OA 16931 SL O1 24196 -0.675000 15.99940
24197 HG 16931 SL H1 24197 0.400000 2.01600
24198 SI 16932 SL Si1 24198 1.100000 28.08600
24199 OA 16932 SL O1 24199 -0.675000 15.99940
24200 HG 16932 SL H1 24200 0.400000 2.01600
24201 SI 16933 SL Si1 24201 1.100000 28.08600
24202 OA 16933 SL O1 24202 -0.675000 15.99940
24203 HG 16933 SL H1 24203 0.400000 2.01600
24204 SI 16934 SL Si1 24204 1.100000 28.08600
24205 OA 16934 SL O1 24205 -0.675000 15.99940
24206 HG 16934 SL H1 24206 0.400000 2.01600
24207 SI 16935 SL Si1 24207 1.100000 28.08600
24208 OA 16935 SL O1 24208 -0.675000 15.99940
24209 HG 16935 SL H1 24209 0.400000 2.01600
24210 SI 16936 SL Si1 24210 1.100000 28.08600
24211 OA 16936 SL O1 24211 -0.675000 15.99940
24212 HG 16936 SL H1 24212 0.400000 2.01600
24213 SI 16937 SL Si1 24213 1.100000 28.08600
24214 OA 16937 SL O1 24214 -0.675000 15.99940
24215 HG 16937 SL H1 24215 0.400000 2.01600
24216 SI 16938 SL Si1 24216 1.100000 28.08600
24217 OA 16938 SL O1 24217 -0.675000 15.99940
24218 HG 16938 SL H1 24218 0.400000 2.01600
24219 SI 16939 SL Si1 24219 1.100000 28.08600
24220 OA 16939 SL O1 24220 -0.675000 15.99940
24221 HG 16939 SL H1 24221 0.400000 2.01600
24222 SI 16940 SL Si1 24222 1.100000 28.08600
24223 OA 16940 SL O1 24223 -0.675000 15.99940
24224 HG 16940 SL H1 24224 0.400000 2.01600
24225 SI 16941 SL Si1 24225 1.100000 28.08600
24226 OA 16941 SL O1 24226 -0.675000 15.99940
24227 HG 16941 SL H1 24227 0.400000 2.01600
24228 SI 16942 SL Si1 24228 1.100000 28.08600
24229 OA 16942 SL O1 24229 -0.675000 15.99940
24230 HG 16942 SL H1 24230 0.400000 2.01600
24231 SI 16943 SL Si1 24231 1.100000 28.08600
24232 OA 16943 SL O1 24232 -0.675000 15.99940
24233 HG 16943 SL H1 24233 0.400000 2.01600
24234 SI 16944 SL Si1 24234 1.100000 28.08600
24235 OA 16944 SL O1 24235 -0.675000 15.99940
24236 HG 16944 SL H1 24236 0.400000 2.01600
24237 SI 16945 SL Si1 24237 1.100000 28.08600
24238 OA 16945 SL O1 24238 -0.675000 15.99940
24239 HG 16945 SL H1 24239 0.400000 2.01600
24240 SI 16946 SL Si1 24240 1.100000 28.08600
24241 OA 16946 SL O1 24241 -0.675000 15.99940
24242 HG 16946 SL H1 24242 0.400000 2.01600
24243 SI 16947 SL Si1 24243 1.100000 28.08600
24244 OA 16947 SL O1 24244 -0.675000 15.99940
24245 HG 16947 SL H1 24245 0.400000 2.01600
24246 SI 16948 SL Si1 24246 1.100000 28.08600
24247 OA 16948 SL O1 24247 -0.675000 15.99940
24248 HG 16948 SL H1 24248 0.400000 2.01600
24249 SI 16949 SL Si1 24249 1.100000 28.08600
24250 OA 16949 SL O1 24250 -0.675000 15.99940
24251 HG 16949 SL H1 24251 0.400000 2.01600
24252 SI 16950 SL Si1 24252 1.100000 28.08600
24253 OA 16950 SL O1 24253 -0.675000 15.99940
24254 HG 16950 SL H1 24254 0.400000 2.01600
24255 SI 16951 SL Si1 24255 1.100000 28.08600
24256 OA 16951 SL O1 24256 -0.675000 15.99940
24257 HG 16951 SL H1 24257 0.400000 2.01600
24258 SI 16952 SL Si1 24258 1.100000 28.08600
24259 OA 16952 SL O1 24259 -0.675000 15.99940
24260 HG 16952 SL H1 24260 0.400000 2.01600
24261 SI 16953 SL Si1 24261 1.100000 28.08600
24262 OA 16953 SL O1 24262 -0.675000 15.99940
24263 HG 16953 SL H1 24263 0.400000 2.01600
24264 SI 16954 SL Si1 24264 1.100000 28.08600
24265 OA 16954 SL O1 24265 -0.675000 15.99940
24266 HG 16954 SL H1 24266 0.400000 2.01600
24267 SI 16955 SL Si1 24267 1.100000 28.08600
24268 OA 16955 SL O1 24268 -0.675000 15.99940
24269 HG 16955 SL H1 24269 0.400000 2.01600
24270 SI 16956 SL Si1 24270 1.100000 28.08600
24271 OA 16956 SL O1 24271 -0.675000 15.99940
24272 HG 16956 SL H1 24272 0.400000 2.01600
24273 SI 16957 SL Si1 24273 1.100000 28.08600
24274 OA 16957 SL O1 24274 -0.675000 15.99940
24275 HG 16957 SL H1 24275 0.400000 2.01600
24276 SI 16958 SL Si1 24276 1.100000 28.08600
24277 OA 16958 SL O1 24277 -0.675000 15.99940
24278 HG 16958 SL H1 24278 0.400000 2.01600
24279 SI 16959 SL Si1 24279 1.100000 28.08600
24280 OA 16959 SL O1 24280 -0.675000 15.99940
24281 HG 16959 SL H1 24281 0.400000 2.01600
24282 SI 16960 SL Si1 24282 1.100000 28.08600
24283 OA 16960 SL O1 24283 -0.675000 15.99940
24284 HG 16960 SL H1 24284 0.400000 2.01600
24285 SI 16961 SL Si1 24285 1.100000 28.08600
24286 OA 16961 SL O1 24286 -0.675000 15.99940
24287 HG 16961 SL H1 24287 0.400000 2.01600
24288 SI 16962 SL Si1 24288 1.100000 28.08600
24289 OA 16962 SL O1 24289 -0.675000 15.99940
24290 HG 16962 SL H1 24290 0.400000 2.01600
24291 SI 16963 SL Si1 24291 1.100000 28.08600
24292 OA 16963 SL O1 24292 -0.675000 15.99940
24293 HG 16963 SL H1 24293 0.400000 2.01600
24294 SI 16964 SL Si1 24294 1.100000 28.08600
24295 OA 16964 SL O1 24295 -0.675000 15.99940
24296 HG 16964 SL H1 24296 0.400000 2.01600
24297 SI 16965 SL Si1 24297 1.100000 28.08600
24298 OA 16965 SL O1 24298 -0.675000 15.99940
24299 HG 16965 SL H1 24299 0.400000 2.01600
24300 SI 16966 SL Si1 24300 1.100000 28.08600
24301 OA 16966 SL O1 24301 -0.675000 15.99940
24302 HG 16966 SL H1 24302 0.400000 2.01600
24303 SI 16967 SL Si1 24303 1.100000 28.08600
24304 OA 16967 SL O1 24304 -0.675000 15.99940
24305 HG 16967 SL H1 24305 0.400000 2.01600
24306 SI 16968 SL Si1 24306 1.100000 28.08600
24307 OA 16968 SL O1 24307 -0.675000 15.99940
24308 HG 16968 SL H1 24308 0.400000 2.01600
24309 SI 16969 SL Si1 24309 1.100000 28.08600
24310 OA 16969 SL O1 24310 -0.675000 15.99940
24311 HG 16969 SL H1 24311 0.400000 2.01600
24312 SI 16970 SL Si1 24312 1.100000 28.08600
24313 OA 16970 SL O1 24313 -0.675000 15.99940
24314 HG 16970 SL H1 24314 0.400000 2.01600
24315 SI 16971 SL Si1 24315 1.100000 28.08600
24316 OA 16971 SL O1 24316 -0.675000 15.99940
24317 HG 16971 SL H1 24317 0.400000 2.01600
24318 SI 16972 SL Si1 24318 1.100000 28.08600
24319 OA 16972 SL O1 24319 -0.675000 15.99940
24320 HG 16972 SL H1 24320 0.400000 2.01600
24321 SI 16973 SL Si1 24321 1.100000 28.08600
24322 OA 16973 SL O1 24322 -0.675000 15.99940
24323 HG 16973 SL H1 24323 0.400000 2.01600
24324 SI 16974 SL Si1 24324 1.100000 28.08600
24325 OA 16974 SL O1 24325 -0.675000 15.99940
24326 HG 16974 SL H1 24326 0.400000 2.01600
24327 SI 16975 SL Si1 24327 1.100000 28.08600
24328 OA 16975 SL O1 24328 -0.675000 15.99940
24329 HG 16975 SL H1 24329 0.400000 2.01600
24330 SI 16976 SL Si1 24330 1.100000 28.08600
24331 OA 16976 SL O1 24331 -0.675000 15.99940
24332 HG 16976 SL H1 24332 0.400000 2.01600
24333 SI 16977 SL Si1 24333 1.100000 28.08600
24334 OA 16977 SL O1 24334 -0.675000 15.99940
24335 HG 16977 SL H1 24335 0.400000 2.01600
24336 SI 16978 SL Si1 24336 1.100000 28.08600
24337 OA 16978 SL O1 24337 -0.675000 15.99940
24338 HG 16978 SL H1 24338 0.400000 2.01600
24339 SI 16979 SL Si1 24339 1.100000 28.08600
24340 OA 16979 SL O1 24340 -0.675000 15.99940
24341 HG 16979 SL H1 24341 0.400000 2.01600
24342 SI 16980 SL Si1 24342 1.100000 28.08600
24343 OA 16980 SL O1 24343 -0.675000 15.99940
24344 HG 16980 SL H1 24344 0.400000 2.01600
24345 SI 16981 SL Si1 24345 1.100000 28.08600
24346 OA 16981 SL O1 24346 -0.675000 15.99940
24347 HG 16981 SL H1 24347 0.400000 2.01600
24348 SI 16982 SL Si1 24348 1.100000 28.08600
24349 OA 16982 SL O1 24349 -0.675000 15.99940
24350 HG 16982 SL H1 24350 0.400000 2.01600
24351 SI 16983 SL Si1 24351 1.100000 28.08600
24352 OA 16983 SL O1 24352 -0.675000 15.99940
24353 HG 16983 SL H1 24353 0.400000 2.01600
24354 SI 16984 SL Si1 24354 1.100000 28.08600
24355 OA 16984 SL O1 24355 -0.675000 15.99940
24356 HG 16984 SL H1 24356 0.400000 2.01600
24357 SI 16985 SL Si1 24357 1.100000 28.08600
24358 OA 16985 SL O1 24358 -0.675000 15.99940
24359 HG 16985 SL H1 24359 0.400000 2.01600
24360 SI 16986 SL Si1 24360 1.100000 28.08600
24361 OA 16986 SL O1 24361 -0.675000 15.99940
24362 HG 16986 SL H1 24362 0.400000 2.01600
24363 SI 16987 SL Si1 24363 1.100000 28.08600
24364 OA 16987 SL O1 24364 -0.675000 15.99940
24365 HG 16987 SL H1 24365 0.400000 2.01600
24366 SI 16988 SL Si1 24366 1.100000 28.08600
24367 OA 16988 SL O1 24367 -0.675000 15.99940
24368 HG 16988 SL H1 24368 0.400000 2.01600
24369 SI 16989 SL Si1 24369 1.100000 28.08600
24370 OA 16989 SL O1 24370 -0.675000 15.99940
24371 HG 16989 SL H1 24371 0.400000 2.01600
24372 SI 16990 SL Si1 24372 1.100000 28.08600
24373 OA 16990 SL O1 24373 -0.675000 15.99940
24374 HG 16990 SL H1 24374 0.400000 2.01600
24375 SI 16991 SL Si1 24375 1.100000 28.08600
24376 OA 16991 SL O1 24376 -0.675000 15.99940
24377 HG 16991 SL H1 24377 0.400000 2.01600
24378 SI 16992 SL Si1 24378 1.100000 28.08600
24379 OA 16992 SL O1 24379 -0.675000 15.99940
24380 HG 16992 SL H1 24380 0.400000 2.01600
24381 SI 16993 SL Si1 24381 1.100000 28.08600
24382 OA 16993 SL O1 24382 -0.675000 15.99940
24383 HG 16993 SL H1 24383 0.400000 2.01600
24384 SI 16994 SL Si1 24384 1.100000 28.08600
24385 OA 16994 SL O1 24385 -0.675000 15.99940
24386 HG 16994 SL H1 24386 0.400000 2.01600
24387 SI 16995 SL Si1 24387 1.100000 28.08600
24388 OA 16995 SL O1 24388 -0.675000 15.99940
24389 HG 16995 SL H1 24389 0.400000 2.01600
24390 SI 16996 SL Si1 24390 1.100000 28.08600
24391 OA 16996 SL O1 24391 -0.675000 15.99940
24392 HG 16996 SL H1 24392 0.400000 2.01600
24393 SI 16997 SL Si1 24393 1.100000 28.08600
24394 OA 16997 SL O1 24394 -0.675000 15.99940
24395 HG 16997 SL H1 24395 0.400000 2.01600
24396 SI 16998 SL Si1 24396 1.100000 28.08600
24397 OA 16998 SL O1 24397 -0.675000 15.99940
24398 HG 16998 SL H1 24398 0.400000 2.01600
24399 SI 16999 SL Si1 24399 1.100000 28.08600
24400 OA 16999 SL O1 24400 -0.675000 15.99940
24401 HG 16999 SL H1 24401 0.400000 2.01600
24402 SI 17000 SL Si1 24402 1.100000 28.08600
24403 OA 17000 SL O1 24403 -0.675000 15.99940
24404 HG 17000 SL H1 24404 0.400000 2.01600
24405 SI 17001 SL Si1 24405 1.100000 28.08600
24406 OA 17001 SL O1 24406 -0.675000 15.99940
24407 HG 17001 SL H1 24407 0.400000 2.01600
24408 SI 17002 SL Si1 24408 1.100000 28.08600
24409 OA 17002 SL O1 24409 -0.675000 15.99940
24410 HG 17002 SL H1 24410 0.400000 2.01600
24411 SI 17003 SL Si1 24411 1.100000 28.08600
24412 OA 17003 SL O1 24412 -0.675000 15.99940
24413 HG 17003 SL H1 24413 0.400000 2.01600
24414 SI 17004 SL Si1 24414 1.100000 28.08600
24415 OA 17004 SL O1 24415 -0.675000 15.99940
24416 HG 17004 SL H1 24416 0.400000 2.01600
24417 SI 17005 SL Si1 24417 1.100000 28.08600
24418 OA 17005 SL O1 24418 -0.675000 15.99940
24419 HG 17005 SL H1 24419 0.400000 2.01600
24420 SI 17006 SL Si1 24420 1.100000 28.08600
24421 OA 17006 SL O1 24421 -0.675000 15.99940
24422 HG 17006 SL H1 24422 0.400000 2.01600
24423 SI 17007 SL Si1 24423 1.100000 28.08600
24424 OA 17007 SL O1 24424 -0.675000 15.99940
24425 HG 17007 SL H1 24425 0.400000 2.01600
24426 SI 17008 SL Si1 24426 1.100000 28.08600
24427 OA 17008 SL O1 24427 -0.675000 15.99940
24428 HG 17008 SL H1 24428 0.400000 2.01600
24429 SI 17009 SL Si1 24429 1.100000 28.08600
24430 OA 17009 SL O1 24430 -0.675000 15.99940
24431 HG 17009 SL H1 24431 0.400000 2.01600
24432 SI 17010 SL Si1 24432 1.100000 28.08600
24433 OA 17010 SL O1 24433 -0.675000 15.99940
24434 HG 17010 SL H1 24434 0.400000 2.01600
24435 SI 17011 SL Si1 24435 1.100000 28.08600
24436 OA 17011 SL O1 24436 -0.675000 15.99940
24437 HG 17011 SL H1 24437 0.400000 2.01600
24438 SI 17012 SL Si1 24438 1.100000 28.08600
24439 OA 17012 SL O1 24439 -0.675000 15.99940
24440 HG 17012 SL H1 24440 0.400000 2.01600
24441 SI 17013 SL Si1 24441 1.100000 28.08600
24442 OA 17013 SL O1 24442 -0.675000 15.99940
24443 HG 17013 SL H1 24443 0.400000 2.01600
24444 SI 17014 SL Si1 24444 1.100000 28.08600
24445 OA 17014 SL O1 24445 -0.675000 15.99940
24446 HG 17014 SL H1 24446 0.400000 2.01600
24447 SI 17015 SL Si1 24447 1.100000 28.08600
24448 OA 17015 SL O1 24448 -0.675000 15.99940
24449 HG 17015 SL H1 24449 0.400000 2.01600
24450 SI 17016 SL Si1 24450 1.100000 28.08600
24451 OA 17016 SL O1 24451 -0.675000 15.99940
24452 HG 17016 SL H1 24452 0.400000 2.01600
24453 SI 17017 SL Si1 24453 1.100000 28.08600
24454 OA 17017 SL O1 24454 -0.675000 15.99940
24455 HG 17017 SL H1 24455 0.400000 2.01600
24456 SI 17018 SL Si1 24456 1.100000 28.08600
24457 OA 17018 SL O1 24457 -0.675000 15.99940
24458 HG 17018 SL H1 24458 0.400000 2.01600
24459 SI 17019 SL Si1 24459 1.100000 28.08600
24460 OA 17019 SL O1 24460 -0.675000 15.99940
24461 HG 17019 SL H1 24461 0.400000 2.01600
24462 SI 17020 SL Si1 24462 1.100000 28.08600
24463 OA 17020 SL O1 24463 -0.675000 15.99940
24464 HG 17020 SL H1 24464 0.400000 2.01600
24465 SI 17021 SL Si1 24465 1.100000 28.08600
24466 OA 17021 SL O1 24466 -0.675000 15.99940
24467 HG 17021 SL H1 24467 0.400000 2.01600
24468 SI 17022 SL Si1 24468 1.100000 28.08600
24469 OA 17022 SL O1 24469 -0.675000 15.99940
24470 HG 17022 SL H1 24470 0.400000 2.01600
24471 SI 17023 SL Si1 24471 1.100000 28.08600
24472 OA 17023 SL O1 24472 -0.675000 15.99940
24473 HG 17023 SL H1 24473 0.400000 2.01600
24474 SI 17024 SL Si1 24474 1.100000 28.08600
24475 OA 17024 SL O1 24475 -0.675000 15.99940
24476 HG 17024 SL H1 24476 0.400000 2.01600
24477 SI 17025 SL Si1 24477 1.100000 28.08600
24478 OA 17025 SL O1 24478 -0.675000 15.99940
24479 HG 17025 SL H1 24479 0.400000 2.01600
24480 SI 17026 SL Si1 24480 1.100000 28.08600
24481 OA 17026 SL O1 24481 -0.675000 15.99940
24482 HG 17026 SL H1 24482 0.400000 2.01600
24483 SI 17027 SL Si1 24483 1.100000 28.08600
24484 OA 17027 SL O1 24484 -0.675000 15.99940
24485 HG 17027 SL H1 24485 0.400000 2.01600
24486 SI 17028 SL Si1 24486 1.100000 28.08600
24487 OA 17028 SL O1 24487 -0.675000 15.99940
24488 HG 17028 SL H1 24488 0.400000 2.01600
24489 SI 17029 SL Si1 24489 1.100000 28.08600
24490 OA 17029 SL O1 24490 -0.675000 15.99940
24491 HG 17029 SL H1 24491 0.400000 2.01600
24492 SI 17030 SL Si1 24492 1.100000 28.08600
24493 OA 17030 SL O1 24493 -0.675000 15.99940
24494 HG 17030 SL H1 24494 0.400000 2.01600
24495 SI 17031 SL Si1 24495 1.100000 28.08600
24496 OA 17031 SL O1 24496 -0.675000 15.99940
24497 HG 17031 SL H1 24497 0.400000 2.01600
24498 SI 17032 SL Si1 24498 1.100000 28.08600
24499 OA 17032 SL O1 24499 -0.675000 15.99940
24500 HG 17032 SL H1 24500 0.400000 2.01600
24501 SI 17033 SL Si1 24501 1.100000 28.08600
24502 OA 17033 SL O1 24502 -0.675000 15.99940
24503 HG 17033 SL H1 24503 0.400000 2.01600
24504 SI 17034 SL Si1 24504 1.100000 28.08600
24505 OA 17034 SL O1 24505 -0.675000 15.99940
24506 HG 17034 SL H1 24506 0.400000 2.01600
24507 SI 17035 SL Si1 24507 1.100000 28.08600
24508 OA 17035 SL O1 24508 -0.675000 15.99940
24509 HG 17035 SL H1 24509 0.400000 2.01600
24510 SI 17036 SL Si1 24510 1.100000 28.08600
24511 OA 17036 SL O1 24511 -0.675000 15.99940
24512 HG 17036 SL H1 24512 0.400000 2.01600
24513 SI 17037 SL Si1 24513 1.100000 28.08600
24514 OA 17037 SL O1 24514 -0.675000 15.99940
24515 HG 17037 SL H1 24515 0.400000 2.01600
24516 SI 17038 SL Si1 24516 1.100000 28.08600
24517 OA 17038 SL O1 24517 -0.675000 15.99940
24518 HG 17038 SL H1 24518 0.400000 2.01600
24519 SI 17039 SL Si1 24519 1.100000 28.08600
24520 OA 17039 SL O1 24520 -0.675000 15.99940
24521 HG 17039 SL H1 24521 0.400000 2.01600
24522 SI 17040 SL Si1 24522 1.100000 28.08600
24523 OA 17040 SL O1 24523 -0.675000 15.99940
24524 HG 17040 SL H1 24524 0.400000 2.01600
24525 SI 17041 SL Si1 24525 1.100000 28.08600
24526 OA 17041 SL O1 24526 -0.675000 15.99940
24527 HG 17041 SL H1 24527 0.400000 2.01600
24528 SI 17042 SL Si1 24528 1.100000 28.08600
24529 OA 17042 SL O1 24529 -0.675000 15.99940
24530 HG 17042 SL H1 24530 0.400000 2.01600
24531 SI 17043 SL Si1 24531 1.100000 28.08600
24532 OA 17043 SL O1 24532 -0.675000 15.99940
24533 HG 17043 SL H1 24533 0.400000 2.01600
24534 SI 17044 SL Si1 24534 1.100000 28.08600
24535 OA 17044 SL O1 24535 -0.675000 15.99940
24536 HG 17044 SL H1 24536 0.400000 2.01600
24537 SI 17045 SL Si1 24537 1.100000 28.08600
24538 OA 17045 SL O1 24538 -0.675000 15.99940
24539 HG 17045 SL H1 24539 0.400000 2.01600
24540 SI 17046 SL Si1 24540 1.100000 28.08600
24541 OA 17046 SL O1 24541 -0.675000 15.99940
24542 HG 17046 SL H1 24542 0.400000 2.01600
24543 SI 17047 SL Si1 24543 1.100000 28.08600
24544 OA 17047 SL O1 24544 -0.675000 15.99940
24545 HG 17047 SL H1 24545 0.400000 2.01600
24546 SI 17048 SL Si1 24546 1.100000 28.08600
24547 OA 17048 SL O1 24547 -0.675000 15.99940
24548 HG 17048 SL H1 24548 0.400000 2.01600
24549 SI 17049 SL Si1 24549 1.100000 28.08600
24550 OA 17049 SL O1 24550 -0.675000 15.99940
24551 HG 17049 SL H1 24551 0.400000 2.01600
24552 SI 17050 SL Si1 24552 1.100000 28.08600
24553 OA 17050 SL O1 24553 -0.675000 15.99940
24554 HG 17050 SL H1 24554 0.400000 2.01600
24555 SI 17051 SL Si1 24555 1.100000 28.08600
24556 OA 17051 SL O1 24556 -0.675000 15.99940
24557 HG 17051 SL H1 24557 0.400000 2.01600
24558 SI 17052 SL Si1 24558 1.100000 28.08600
24559 OA 17052 SL O1 24559 -0.675000 15.99940
24560 HG 17052 SL H1 24560 0.400000 2.01600
24561 SI 17053 SL Si1 24561 1.100000 28.08600
24562 OA 17053 SL O1 24562 -0.675000 15.99940
24563 HG 17053 SL H1 24563 0.400000 2.01600
24564 SI 17054 SL Si1 24564 1.100000 28.08600
24565 OA 17054 SL O1 24565 -0.675000 15.99940
24566 HG 17054 SL H1 24566 0.400000 2.01600
24567 SI 17055 SL Si1 24567 1.100000 28.08600
24568 OA 17055 SL O1 24568 -0.675000 15.99940
24569 HG 17055 SL H1 24569 0.400000 2.01600
24570 SI 17056 SL Si1 24570 1.100000 28.08600
24571 OA 17056 SL O1 24571 -0.675000 15.99940
24572 HG 17056 SL H1 24572 0.400000 2.01600
24573 SI 17057 SL Si1 24573 1.100000 28.08600
24574 OA 17057 SL O1 24574 -0.675000 15.99940
24575 HG 17057 SL H1 24575 0.400000 2.01600
24576 SI 17058 SL Si1 24576 1.100000 28.08600
24577 OA 17058 SL O1 24577 -0.675000 15.99940
24578 HG 17058 SL H1 24578 0.400000 2.01600
24579 SI 17059 SL Si1 24579 1.100000 28.08600
24580 OA 17059 SL O1 24580 -0.675000 15.99940
24581 HG 17059 SL H1 24581 0.400000 2.01600
24582 SI 17060 SL Si1 24582 1.100000 28.08600
24583 OA 17060 SL O1 24583 -0.675000 15.99940
24584 HG 17060 SL H1 24584 0.400000 2.01600
24585 SI 17061 SL Si1 24585 1.100000 28.08600
24586 OA 17061 SL O1 24586 -0.675000 15.99940
24587 HG 17061 SL H1 24587 0.400000 2.01600
24588 SI 17062 SL Si1 24588 1.100000 28.08600
24589 OA 17062 SL O1 24589 -0.675000 15.99940
24590 HG 17062 SL H1 24590 0.400000 2.01600
24591 SI 17063 SL Si1 24591 1.100000 28.08600
24592 OA 17063 SL O1 24592 -0.675000 15.99940
24593 HG 17063 SL H1 24593 0.400000 2.01600
24594 SI 17064 SL Si1 24594 1.100000 28.08600
24595 OA 17064 SL O1 24595 -0.675000 15.99940
24596 HG 17064 SL H1 24596 0.400000 2.01600
24597 SI 17065 SL Si1 24597 1.100000 28.08600
24598 OA 17065 SL O1 24598 -0.675000 15.99940
24599 HG 17065 SL H1 24599 0.400000 2.01600
24600 SI 17066 SL Si1 24600 1.100000 28.08600
24601 OA 17066 SL O1 24601 -0.675000 15.99940
24602 HG 17066 SL H1 24602 0.400000 2.01600
24603 SI 17067 SL Si1 24603 1.100000 28.08600
24604 OA 17067 SL O1 24604 -0.675000 15.99940
24605 HG 17067 SL H1 24605 0.400000 2.01600
24606 SI 17068 SL Si1 24606 1.100000 28.08600
24607 OA 17068 SL O1 24607 -0.675000 15.99940
24608 HG 17068 SL H1 24608 0.400000 2.01600
24609 SI 17069 SL Si1 24609 1.100000 28.08600
24610 OA 17069 SL O1 24610 -0.675000 15.99940
24611 HG 17069 SL H1 24611 0.400000 2.01600
24612 SI 17070 SL Si1 24612 1.100000 28.08600
24613 OA 17070 SL O1 24613 -0.675000 15.99940
24614 HG 17070 SL H1 24614 0.400000 2.01600
24615 SI 17071 SL Si1 24615 1.100000 28.08600
24616 OA 17071 SL O1 24616 -0.675000 15.99940
24617 HG 17071 SL H1 24617 0.400000 2.01600
24618 SI 17072 SL Si1 24618 1.100000 28.08600
24619 OA 17072 SL O1 24619 -0.675000 15.99940
24620 HG 17072 SL H1 24620 0.400000 2.01600
24621 SI 17073 SL Si1 24621 1.100000 28.08600
24622 OA 17073 SL O1 24622 -0.675000 15.99940
24623 HG 17073 SL H1 24623 0.400000 2.01600
24624 SI 17074 SLG Si1 24624 1.100000 28.08600
24625 OA 17074 SLG O1 24625 -0.675000 15.99940
24626 HG 17074 SLG H1 24626 0.400000 2.01600
24627 OA 17074 SLG O2 24627 -0.675000 15.99940
24628 HG 17074 SLG H2 24628 0.400000 2.01600
24629 SI 17075 SLG Si1 24629 1.100000 28.08600
24630 OA 17075 SLG O1 24630 -0.675000 15.99940
24631 HG 17075 SLG H1 24631 0.400000 2.01600
24632 OA 17075 SLG O2 24632 -0.675000 15.99940
24633 HG 17075 SLG H2 24633 0.400000 2.01600
24634 SI 17076 SLG Si1 24634 1.100000 28.08600
24635 OA 17076 SLG O1 24635 -0.675000 15.99940
24636 HG 17076 SLG H1 24636 0.400000 2.01600
24637 OA 17076 SLG O2 24637 -0.675000 15.99940
24638 HG 17076 SLG H2 24638 0.400000 2.01600
24639 SI 17077 SLG Si1 24639 1.100000 28.08600
24640 OA 17077 SLG O1 24640 -0.675000 15.99940
24641 HG 17077 SLG H1 24641 0.400000 2.01600
24642 OA 17077 SLG O2 24642 -0.675000 15.99940
24643 HG 17077 SLG H2 24643 0.400000 2.01600
24644 SI 17078 SLG Si1 24644 1.100000 28.08600
24645 OA 17078 SLG O1 24645 -0.675000 15.99940
24646 HG 17078 SLG H1 24646 0.400000 2.01600
24647 OA 17078 SLG O2 24647 -0.675000 15.99940
24648 HG 17078 SLG H2 24648 0.400000 2.01600
24649 SI 17079 SLG Si1 24649 1.100000 28.08600
24650 OA 17079 SLG O1 24650 -0.675000 15.99940
24651 HG 17079 SLG H1 24651 0.400000 2.01600
24652 OA 17079 SLG O2 24652 -0.675000 15.99940
24653 HG 17079 SLG H2 24653 0.400000 2.01600
24654 SI 17080 SLG Si1 24654 1.100000 28.08600
24655 OA 17080 SLG O1 24655 -0.675000 15.99940
24656 HG 17080 SLG H1 24656 0.400000 2.01600
24657 OA 17080 SLG O2 24657 -0.675000 15.99940
24658 HG 17080 SLG H2 24658 0.400000 2.01600
24659 SI 17081 SLG Si1 24659 1.100000 28.08600
24660 OA 17081 SLG O1 24660 -0.675000 15.99940
24661 HG 17081 SLG H1 24661 0.400000 2.01600
24662 OA 17081 SLG O2 24662 -0.675000 15.99940
24663 HG 17081 SLG H2 24663 0.400000 2.01600
24664 SI 17082 SLG Si1 24664 1.100000 28.08600
24665 OA 17082 SLG O1 24665 -0.675000 15.99940
24666 HG 17082 SLG H1 24666 0.400000 2.01600
24667 OA 17082 SLG O2 24667 -0.675000 15.99940
24668 HG 17082 SLG H2 24668 0.400000 2.01600
24669 SI 17083 SLG Si1 24669 1.100000 28.08600
24670 OA 17083 SLG O1 24670 -0.675000 15.99940
24671 HG 17083 SLG H1 24671 0.400000 2.01600
24672 OA 17083 SLG O2 24672 -0.675000 15.99940
24673 HG 17083 SLG H2 24673 0.400000 2.01600
24674 SI 17084 SLG Si1 24674 1.100000 28.08600
24675 OA 17084 SLG O1 24675 -0.675000 15.99940
24676 HG 17084 SLG H1 24676 0.400000 2.01600
24677 OA 17084 SLG O2 24677 -0.675000 15.99940
24678 HG 17084 SLG H2 24678 0.400000 2.01600
24679 SI 17085 SLG Si1 24679 1.100000 28.08600
24680 OA 17085 SLG O1 24680 -0.675000 15.99940
24681 HG 17085 SLG H1 24681 0.400000 2.01600
24682 OA 17085 SLG O2 24682 -0.675000 15.99940
24683 HG 17085 SLG H2 24683 0.400000 2.01600
24684 SI 17086 SLG Si1 24684 1.100000 28.08600
24685 OA 17086 SLG O1 24685 -0.675000 15.99940
24686 HG 17086 SLG H1 24686 0.400000 2.01600
24687 OA 17086 SLG O2 24687 -0.675000 15.99940
24688 HG 17086 SLG H2 24688 0.400000 2.01600
24689 SI 17087 SLG Si1 24689 1.100000 28.08600
24690 OA 17087 SLG O1 24690 -0.675000 15.99940
24691 HG 17087 SLG H1 24691 0.400000 2.01600
24692 OA 17087 SLG O2 24692 -0.675000 15.99940
24693 HG 17087 SLG H2 24693 0.400000 2.01600
24694 SI 17088 SLG Si1 24694 1.100000 28.08600
24695 OA 17088 SLG O1 24695 -0.675000 15.99940
24696 HG 17088 SLG H1 24696 0.400000 2.01600
24697 OA 17088 SLG O2 24697 -0.675000 15.99940
24698 HG 17088 SLG H2 24698 0.400000 2.01600
24699 SI 17089 SLG Si1 24699 1.100000 28.08600
24700 OA 17089 SLG O1 24700 -0.675000 15.99940
24701 HG 17089 SLG H1 24701 0.400000 2.01600
24702 OA 17089 SLG O2 24702 -0.675000 15.99940
24703 HG 17089 SLG H2 24703 0.400000 2.01600
24704 SI 17090 SLG Si1 24704 1.100000 28.08600
24705 OA 17090 SLG O1 24705 -0.675000 15.99940
24706 HG 17090 SLG H1 24706 0.400000 2.01600
24707 OA 17090 SLG O2 24707 -0.675000 15.99940
24708 HG 17090 SLG H2 24708 0.400000 2.01600
24709 SI 17091 SLG Si1 24709 1.100000 28.08600
24710 OA 17091 SLG O1 24710 -0.675000 15.99940
24711 HG 17091 SLG H1 24711 0.400000 2.01600
24712 OA 17091 SLG O2 24712 -0.675000 15.99940
24713 HG 17091 SLG H2 24713 0.400000 2.01600
24714 SI 17092 SLG Si1 24714 1.100000 28.08600
24715 OA 17092 SLG O1 24715 -0.675000 15.99940
24716 HG 17092 SLG H1 24716 0.400000 2.01600
24717 OA 17092 SLG O2 24717 -0.675000 15.99940
24718 HG 17092 SLG H2 24718 0.400000 2.01600
24719 SI 17093 SLG Si1 24719 1.100000 28.08600
24720 OA 17093 SLG O1 24720 -0.675000 15.99940
24721 HG 17093 SLG H1 24721 0.400000 2.01600
24722 OA 17093 SLG O2 24722 -0.675000 15.99940
24723 HG 17093 SLG H2 24723 0.400000 2.01600
24724 SI 17094 SLG Si1 24724 1.100000 28.08600
24725 OA 17094 SLG O1 24725 -0.675000 15.99940
24726 HG 17094 SLG H1 24726 0.400000 2.01600
24727 OA 17094 SLG O2 24727 -0.675000 15.99940
24728 HG 17094 SLG H2 24728 0.400000 2.01600
24729 SI 17095 SLG Si1 24729 1.100000 28.08600
24730 OA 17095 SLG O1 24730 -0.675000 15.99940
24731 HG 17095 SLG H1 24731 0.400000 2.01600
24732 OA 17095 SLG O2 24732 -0.675000 15.99940
24733 HG 17095 SLG H2 24733 0.400000 2.01600
24734 SI 17096 SLG Si1 24734 1.100000 28.08600
24735 OA 17096 SLG O1 24735 -0.675000 15.99940
24736 HG 17096 SLG H1 24736 0.400000 2.01600
24737 OA 17096 SLG O2 24737 -0.675000 15.99940
24738 HG 17096 SLG H2 24738 0.400000 2.01600
24739 SI 17097 SLG Si1 24739 1.100000 28.08600
24740 OA 17097 SLG O1 24740 -0.675000 15.99940
24741 HG 17097 SLG H1 24741 0.400000 2.01600
24742 OA 17097 SLG O2 24742 -0.675000 15.99940
24743 HG 17097 SLG H2 24743 0.400000 2.01600
24744 SI 17098 SLG Si1 24744 1.100000 28.08600
24745 OA 17098 SLG O1 24745 -0.675000 15.99940
24746 HG 17098 SLG H1 24746 0.400000 2.01600
24747 OA 17098 SLG O2 24747 -0.675000 15.99940
24748 HG 17098 SLG H2 24748 0.400000 2.01600
24749 SI 17099 SLG Si1 24749 1.100000 28.08600
24750 OA 17099 SLG O1 24750 -0.675000 15.99940
24751 HG 17099 SLG H1 24751 0.400000 2.01600
24752 OA 17099 SLG O2 24752 -0.675000 15.99940
24753 HG 17099 SLG H2 24753 0.400000 2.01600
24754 SI 17100 SLG Si1 24754 1.100000 28.08600
24755 OA 17100 SLG O1 24755 -0.675000 15.99940
24756 HG 17100 SLG H1 24756 0.400000 2.01600
24757 OA 17100 SLG O2 24757 -0.675000 15.99940
24758 HG 17100 SLG H2 24758 0.400000 2.01600
24759 SI 17101 SLG Si1 24759 1.100000 28.08600
24760 OA 17101 SLG O1 24760 -0.675000 15.99940
24761 HG 17101 SLG H1 24761 0.400000 2.01600
24762 OA 17101 SLG O2 24762 -0.675000 15.99940
24763 HG 17101 SLG H2 24763 0.400000 2.01600
24764 SI 17102 SLG Si1 24764 1.100000 28.08600
24765 OA 17102 SLG O1 24765 -0.675000 15.99940
24766 HG 17102 SLG H1 24766 0.400000 2.01600
24767 OA 17102 SLG O2 24767 -0.675000 15.99940
24768 HG 17102 SLG H2 24768 0.400000 2.01600
24769 SI 17103 SLG Si1 24769 1.100000 28.08600
24770 OA 17103 SLG O1 24770 -0.675000 15.99940
24771 HG 17103 SLG H1 24771 0.400000 2.01600
24772 OA 17103 SLG O2 24772 -0.675000 15.99940
24773 HG 17103 SLG H2 24773 0.400000 2.01600
24774 SI 17104 SLG Si1 24774 1.100000 28.08600
24775 OA 17104 SLG O1 24775 -0.675000 15.99940
24776 HG 17104 SLG H1 24776 0.400000 2.01600
24777 OA 17104 SLG O2 24777 -0.675000 15.99940
24778 HG 17104 SLG H2 24778 0.400000 2.01600
24779 SI 17105 SLG Si1 24779 1.100000 28.08600
24780 OA 17105 SLG O1 24780 -0.675000 15.99940
24781 HG 17105 SLG H1 24781 0.400000 2.01600
24782 OA 17105 SLG O2 24782 -0.675000 15.99940
24783 HG 17105 SLG H2 24783 0.400000 2.01600
24784 SI 17106 SLG Si1 24784 1.100000 28.08600
24785 OA 17106 SLG O1 24785 -0.675000 15.99940
24786 HG 17106 SLG H1 24786 0.400000 2.01600
24787 OA 17106 SLG O2 24787 -0.675000 15.99940
24788 HG 17106 SLG H2 24788 0.400000 2.01600
24789 SI 17107 SLG Si1 24789 1.100000 28.08600
24790 OA 17107 SLG O1 24790 -0.675000 15.99940
24791 HG 17107 SLG H1 24791 0.400000 2.01600
24792 OA 17107 SLG O2 24792 -0.675000 15.99940
24793 HG 17107 SLG H2 24793 0.400000 2.01600
24794 SI 17108 SLG Si1 24794 1.100000 28.08600
24795 OA 17108 SLG O1 24795 -0.675000 15.99940
24796 HG 17108 SLG H1 24796 0.400000 2.01600
24797 OA 17108 SLG O2 24797 -0.675000 15.99940
24798 HG 17108 SLG H2 24798 0.400000 2.01600
24799 SI 17109 SLG Si1 24799 1.100000 28.08600
24800 OA 17109 SLG O1 24800 -0.675000 15.99940
24801 HG 17109 SLG H1 24801 0.400000 2.01600
24802 OA 17109 SLG O2 24802 -0.675000 15.99940
24803 HG 17109 SLG H2 24803 0.400000 2.01600
24804 SI 17110 SLG Si1 24804 1.100000 28.08600
24805 OA 17110 SLG O1 24805 -0.675000 15.99940
24806 HG 17110 SLG H1 24806 0.400000 2.01600
24807 OA 17110 SLG O2 24807 -0.675000 15.99940
24808 HG 17110 SLG H2 24808 0.400000 2.01600
24809 SI 17111 SLG Si1 24809 1.100000 28.08600
24810 OA 17111 SLG O1 24810 -0.675000 15.99940
24811 HG 17111 SLG H1 24811 0.400000 2.01600
24812 OA 17111 SLG O2 24812 -0.675000 15.99940
24813 HG 17111 SLG H2 24813 0.400000 2.01600

[ bonds ]
; ai aj funct params
1 11227 1 0.16500 119244.000000
1 14580 1 0.16500 119244.000000
2 11227 1 0.16500 119244.000000
2 15233 1 0.16500 119244.000000
3 11227 1 0.16500 119244.000000
3 15408 1 0.16500 119244.000000
4 11227 1 0.16500 119244.000000
4 11549 1 0.16500 119244.000000
5 11345 1 0.16500 119244.000000
5 18345 1 0.16500 119244.000000
6 18345 1 0.16500 119244.000000
6 23073 1 0.16500 119244.000000
7 11228 1 0.16500 119244.000000
7 15335 1 0.16500 119244.000000
8 11228 1 0.16500 119244.000000
8 16128 1 0.16500 119244.000000
9 11228 1 0.16500 119244.000000
9 11600 1 0.16500 119244.000000
10 11228 1 0.16500 119244.000000
10 12237 1 0.16500 119244.000000
11 12062 1 0.16500 119244.000000
11 18357 1 0.16500 119244.000000
12 12377 1 0.16500 119244.000000
12 18357 1 0.16500 119244.000000
13 13328 1 0.16500 119244.000000
13 18357 1 0.16500 119244.000000
14 11229 1 0.16500 119244.000000
14 11262 1 0.16500 119244.000000
15 11229 1 0.16500 119244.000000
15 13259 1 0.16500 119244.000000
16 11229 1 0.16500 119244.000000
16 13515 1 0.16500 119244.000000
17 11229 1 0.16500 119244.000000
17 12317 1 0.16500 119244.000000
18 12148 1 0.16500 119244.000000
18 24114 1 0.16500 119244.000000
19 11230 1 0.16500 119244.000000
19 24171 1 0.16500 119244.000000
20 11230 1 0.16500 119244.000000
20 13871 1 0.16500 119244.000000
21 11230 1 0.16500 119244.000000
21 17099 1 0.16500 119244.000000
22 11231 1 0.16500 119244.000000
22 14827 1 0.16500 119244.000000
23 11231 1 0.16500 119244.000000
23 15734 1 0.16500 119244.000000
24 11231 1 0.16500 119244.000000
24 16903 1 0.16500 119244.000000
25 11231 1 0.16500 119244.000000
25 12595 1 0.16500 119244.000000
26 11232 1 0.16500 119244.000000
26 12057 1 0.16500 119244.000000
27 11232 1 0.16500 119244.000000
27 13556 1 0.16500 119244.000000
28 11232 1 0.16500 119244.000000
28 14677 1 0.16500 119244.000000
29 11232 1 0.16500 119244.000000
29 16004 1 0.16500 119244.000000
30 18369 1 0.16500 119244.000000
30 22341 1 0.16500 119244.000000
31 18051 1 0.16500 119244.000000
31 18369 1 0.16500 119244.000000
32 13581 1 0.16500 119244.000000
32 18369 1 0.16500 119244.000000
33 11233 1 0.16500 119244.000000
33 13906 1 0.16500 119244.000000
34 11233 1 0.16500 119244.000000
34 15153 1 0.16500 119244.000000
35 11233 1 0.16500 119244.000000
35 12534 1 0.16500 119244.000000
36 11233 1 0.16500 119244.000000
36 14842 1 0.16500 119244.000000
37 11234 1 0.16500 119244.000000
37 13856 1 0.16500 119244.000000
38 11234 1 0.16500 119244.000000
38 13219 1 0.16500 119244.000000
39 11234 1 0.16500 119244.000000
39 12463 1 0.16500 119244.000000
40 11234 1 0.16500 119244.000000
40 13751 1 0.16500 119244.000000
41 11235 1 0.16500 119244.000000
41 14820 1 0.16500 119244.000000
42 11235 1 0.16500 119244.000000
42 14212 1 0.16500 119244.000000
43 11235 1 0.16500 119244.000000
43 15453 1 0.16500 119244.000000
44 11235 1 0.16500 119244.000000
44 15810 1 0.16500 119244.000000
45 11236 1 0.16500 119244.000000
45 14933 1 0.16500 119244.000000
46 11236 1 0.16500 119244.000000
46 17085 1 0.16500 119244.000000
47 11236 1 0.16500 119244.000000
47 13932 1 0.16500 119244.000000
48 11236 1 0.16500 119244.000000
48 15293 1 0.16500 119244.000000
49 11237 1 0.16500 119244.000000
49 14198 1 0.16500 119244.000000
50 11237 1 0.16500 119244.000000
50 14516 1 0.16500 119244.000000
51 11237 1 0.16500 119244.000000
51 13661 1 0.16500 119244.000000
52 11237 1 0.16500 119244.000000
52 11999 1 0.16500 119244.000000
53 11238 1 0.16500 119244.000000
53 13727 1 0.16500 119244.000000
54 11238 1 0.16500 119244.000000
54 12443 1 0.16500 119244.000000
55 11238 1 0.16500 119244.000000
55 15394 1 0.16500 119244.000000
56 11238 1 0.16500 119244.000000
56 12070 1 0.16500 119244.000000
57 11239 1 0.16500 119244.000000
57 13755 1 0.16500 119244.000000
58 11239 1 0.16500 119244.000000
58 13590 1 0.16500 119244.000000
59 11239 1 0.16500 119244.000000
59 11652 1 0.16500 119244.000000
60 11239 1 0.16500 119244.000000
60 14992 1 0.16500 119244.000000
61 11240 1 0.16500 119244.000000
61 17267 1 0.16500 119244.000000
62 11240 1 0.16500 119244.000000
62 12241 1 0.16500 119244.000000
63 11240 1 0.16500 119244.000000
63 11265 1 0.16500 119244.000000
64 11240 1 0.16500 119244.000000
64 11979 1 0.16500 119244.000000
65 11241 1 0.16500 119244.000000
65 11402 1 0.16500 119244.000000
66 11241 1 0.16500 119244.000000
66 24435 1 0.16500 119244.000000
67 11241 1 0.16500 119244.000000
67 15629 1 0.16500 119244.000000
68 16157 1 0.16500 119244.000000
68 18381 1 0.16500 119244.000000
69 14615 1 0.16500 119244.000000
69 18381 1 0.16500 119244.000000
70 11242 1 0.16500 119244.000000
70 14883 1 0.16500 119244.000000
71 11242 1 0.16500 119244.000000
71 13542 1 0.16500 119244.000000
72 11242 1 0.16500 119244.000000
72 15921 1 0.16500 119244.000000
73 11242 1 0.16500 119244.000000
73 15522 1 0.16500 119244.000000
74 11243 1 0.16500 119244.000000
74 23649 1 0.16500 119244.000000
75 11243 1 0.16500 119244.000000
75 23577 1 0.16500 119244.000000
76 11243 1 0.16500 119244.000000
76 15385 1 0.16500 119244.000000
77 11243 1 0.16500 119244.000000
77 16181 1 0.16500 119244.000000
78 11244 1 0.16500 119244.000000
78 12243 1 0.16500 119244.000000
79 11244 1 0.16500 119244.000000
79 11612 1 0.16500 119244.000000
80 11244 1 0.16500 119244.000000
80 14776 1 0.16500 119244.000000
81 11244 1 0.16500 119244.000000
81 14355 1 0.16500 119244.000000
82 11245 1 0.16500 119244.000000
82 13514 1 0.16500 119244.000000
83 11245 1 0.16500 119244.000000
83 16184 1 0.16500 119244.000000
84 11245 1 0.16500 119244.000000
84 14373 1 0.16500 119244.000000
85 11245 1 0.16500 119244.000000
85 16038 1 0.16500 119244.000000
86 13277 1 0.16500 119244.000000
86 13303 1 0.16500 119244.000000
87 11246 1 0.16500 119244.000000
87 12919 1 0.16500 119244.000000
88 11246 1 0.16500 119244.000000
88 13303 1 0.16500 119244.000000
89 11246 1 0.16500 119244.000000
89 15388 1 0.16500 119244.000000
90 18393 1 0.16500 119244.000000
90 24219 1 0.16500 119244.000000
91 15488 1 0.16500 119244.000000
91 18393 1 0.16500 119244.000000
92 18393 1 0.16500 119244.000000
92 24222 1 0.16500 119244.000000
93 11247 1 0.16500 119244.000000
93 13478 1 0.16500 119244.000000
94 11247 1 0.16500 119244.000000
94 13237 1 0.16500 119244.000000
95 11247 1 0.16500 119244.000000
95 15775 1 0.16500 119244.000000
96 11247 1 0.16500 119244.000000
96 12421 1 0.16500 119244.000000
97 11248 1 0.16500 119244.000000
97 15135 1 0.16500 119244.000000
98 11248 1 0.16500 119244.000000
98 12734 1 0.16500 119244.000000
99 11248 1 0.16500 119244.000000
99 13580 1 0.16500 119244.000000
100 11248 1 0.16500 119244.000000
100 15646 1 0.16500 119244.000000
101 11249 1 0.16500 119244.000000
101 11482 1 0.16500 119244.000000
102 11249 1 0.16500 119244.000000
102 13673 1 0.16500 119244.000000
103 11249 1 0.16500 119244.000000
103 12210 1 0.16500 119244.000000
104 11249 1 0.16500 119244.000000
104 15784 1 0.16500 119244.000000
105 11250 1 0.16500 119244.000000
105 11911 1 0.16500 119244.000000
106 11250 1 0.16500 119244.000000
106 16136 1 0.16500 119244.000000
107 11250 1 0.16500 119244.000000
107 15552 1 0.16500 119244.000000
108 11250 1 0.16500 119244.000000
108 15787 1 0.16500 119244.000000
109 11251 1 0.16500 119244.000000
109 14344 1 0.16500 119244.000000
110 11251 1 0.16500 119244.000000
110 15711 1 0.16500 119244.000000
111 11251 1 0.16500 119244.000000
111 13248 1 0.16500 119244.000000
112 11251 1 0.16500 119244.000000
112 15429 1 0.16500 119244.000000
113 11252 1 0.16500 119244.000000
113 11603 1 0.16500 119244.000000
114 11252 1 0.16500 119244.000000
114 12332 1 0.16500 119244.000000
115 11252 1 0.16500 119244.000000
115 15698 1 0.16500 119244.000000
116 11252 1 0.16500 119244.000000
116 11656 1 0.16500 119244.000000
117 11253 1 0.16500 119244.000000
117 14032 1 0.16500 119244.000000
118 11253 1 0.16500 119244.000000
118 11653 1 0.16500 119244.000000
119 11253 1 0.16500 119244.000000
119 14764 1 0.16500 119244.000000
120 11253 1 0.16500 119244.000000
120 12397 1 0.16500 119244.000000
121 11254 1 0.16500 119244.000000
121 16157 1 0.16500 119244.000000
122 11254 1 0.16500 119244.000000
122 24597 1 0.16500 119244.000000
123 11340 1 0.16500 119244.000000
123 18405 1 0.16500 119244.000000
124 16070 1 0.16500 119244.000000
124 18405 1 0.16500 119244.000000
125 18405 1 0.16500 119244.000000
125 20157 1 0.16500 119244.000000
126 11255 1 0.16500 119244.000000
126 11661 1 0.16500 119244.000000
127 11255 1 0.16500 119244.000000
127 11257 1 0.16500 119244.000000
128 11255 1 0.16500 119244.000000
128 11666 1 0.16500 119244.000000
129 11255 1 0.16500 119244.000000
129 11566 1 0.16500 119244.000000
130 11256 1 0.16500 119244.000000
130 12617 1 0.16500 119244.000000
131 11256 1 0.16500 119244.000000
131 13450 1 0.16500 119244.000000
132 11256 1 0.16500 119244.000000
132 13370 1 0.16500 119244.000000
133 11256 1 0.16500 119244.000000
133 15189 1 0.16500 119244.000000
134 11257 1 0.16500 119244.000000
134 12952 1 0.16500 119244.000000
135 11257 1 0.16500 119244.000000
135 13224 1 0.16500 119244.000000
136 11257 1 0.16500 119244.000000
136 14871 1 0.16500 119244.000000
137 18417 1 0.16500 119244.000000
137 18693 1 0.16500 119244.000000
138 14859 1 0.16500 119244.000000
138 18417 1 0.16500 119244.000000
139 12018 1 0.16500 119244.000000
139 18417 1 0.16500 119244.000000
140 11258 1 0.16500 119244.000000
140 12402 1 0.16500 119244.000000
141 11258 1 0.16500 119244.000000
141 13413 1 0.16500 119244.000000
142 11258 1 0.16500 119244.000000
142 19617 1 0.16500 119244.000000
143 11258 1 0.16500 119244.000000
143 11683 1 0.16500 119244.000000
144 11259 1 0.16500 119244.000000
144 14856 1 0.16500 119244.000000
145 11259 1 0.16500 119244.000000
145 20937 1 0.16500 119244.000000
146 11259 1 0.16500 119244.000000
146 12027 1 0.16500 119244.000000
147 11259 1 0.16500 119244.000000
147 12378 1 0.16500 119244.000000
148 13559 1 0.16500 119244.000000
148 14683 1 0.16500 119244.000000
149 11260 1 0.16500 119244.000000
149 14492 1 0.16500 119244.000000
150 11260 1 0.16500 119244.000000
150 14683 1 0.16500 119244.000000
151 11260 1 0.16500 119244.000000
151 11494 1 0.16500 119244.000000
152 11261 1 0.16500 119244.000000
152 14278 1 0.16500 119244.000000
153 11261 1 0.16500 119244.000000
153 11620 1 0.16500 119244.000000
154 11261 1 0.16500 119244.000000
154 14385 1 0.16500 119244.000000
155 11261 1 0.16500 119244.000000
155 11670 1 0.16500 119244.000000
156 11262 1 0.16500 119244.000000
156 11925 1 0.16500 119244.000000
157 11262 1 0.16500 119244.000000
157 13174 1 0.16500 119244.000000
158 11262 1 0.16500 119244.000000
158 13756 1 0.16500 119244.000000
159 13290 1 0.16500 119244.000000
159 13403 1 0.16500 119244.000000
160 11263 1 0.16500 119244.000000
160 11522 1 0.16500 119244.000000
161 11263 1 0.16500 119244.000000
161 12476 1 0.16500 119244.000000
162 11263 1 0.16500 119244.000000
162 14817 1 0.16500 119244.000000
163 11264 1 0.16500 119244.000000
163 12949 1 0.16500 119244.000000
164 11264 1 0.16500 119244.000000
164 13162 1 0.16500 119244.000000
165 11264 1 0.16500 119244.000000
165 15720 1 0.16500 119244.000000
166 11264 1 0.16500 119244.000000
166 14337 1 0.16500 119244.000000
167 11265 1 0.16500 119244.000000
167 13414 1 0.16500 119244.000000
168 11265 1 0.16500 119244.000000
168 20469 1 0.16500 119244.000000
169 11265 1 0.16500 119244.000000
169 13821 1 0.16500 119244.000000
170 11266 1 0.16500 119244.000000
170 15787 1 0.16500 119244.000000
171 11266 1 0.16500 119244.000000
171 11886 1 0.16500 119244.000000
172 11266 1 0.16500 119244.000000
172 13154 1 0.16500 119244.000000
173 11266 1 0.16500 119244.000000
173 15201 1 0.16500 119244.000000
174 11267 1 0.16500 119244.000000
174 22281 1 0.16500 119244.000000
175 11267 1 0.16500 119244.000000
175 14730 1 0.16500 119244.000000
176 11267 1 0.16500 119244.000000
176 11385 1 0.16500 119244.000000
177 11267 1 0.16500 119244.000000
177 16203 1 0.16500 119244.000000
178 17953 1 0.16500 119244.000000
178 18429 1 0.16500 119244.000000
179 15749 1 0.16500 119244.000000
179 18429 1 0.16500 119244.000000
180 11268 1 0.16500 119244.000000
180 12495 1 0.16500 119244.000000
181 11268 1 0.16500 119244.000000
181 22905 1 0.16500 119244.000000
182 11268 1 0.16500 119244.000000
182 15630 1 0.16500 119244.000000
183 11268 1 0.16500 119244.000000
183 15693 1 0.16500 119244.000000
184 11269 1 0.16500 119244.000000
184 14150 1 0.16500 119244.000000
185 11269 1 0.16500 119244.000000
185 13025 1 0.16500 119244.000000
186 11269 1 0.16500 119244.000000
186 12408 1 0.16500 119244.000000
187 11269 1 0.16500 119244.000000
187 13487 1 0.16500 119244.000000
188 11270 1 0.16500 119244.000000
188 15308 1 0.16500 119244.000000
189 11270 1 0.16500 119244.000000
189 13392 1 0.16500 119244.000000
190 11270 1 0.16500 119244.000000
190 15010 1 0.16500 119244.000000
191 11270 1 0.16500 119244.000000
191 11894 1 0.16500 119244.000000
192 13800 1 0.16500 119244.000000
192 18441 1 0.16500 119244.000000
193 11271 1 0.16500 119244.000000
193 12753 1 0.16500 119244.000000
194 11271 1 0.16500 119244.000000
194 14391 1 0.16500 119244.000000
195 11271 1 0.16500 119244.000000
195 14232 1 0.16500 119244.000000
196 11271 1 0.16500 119244.000000
196 12267 1 0.16500 119244.000000
197 11272 1 0.16500 119244.000000
197 15949 1 0.16500 119244.000000
198 11272 1 0.16500 119244.000000
198 13683 1 0.16500 119244.000000
199 11272 1 0.16500 119244.000000
199 13952 1 0.16500 119244.000000
200 11272 1 0.16500 119244.000000
200 12191 1 0.16500 119244.000000
201 11273 1 0.16500 119244.000000
201 14909 1 0.16500 119244.000000
202 11273 1 0.16500 119244.000000
202 14707 1 0.16500 119244.000000
203 11273 1 0.16500 119244.000000
203 13033 1 0.16500 119244.000000
204 12281 1 0.16500 119244.000000
204 14707 1 0.16500 119244.000000
205 16945 1 0.16500 119244.000000
205 23901 1 0.16500 119244.000000
206 11274 1 0.16500 119244.000000
206 15516 1 0.16500 119244.000000
207 11274 1 0.16500 119244.000000
207 23901 1 0.16500 119244.000000
208 11274 1 0.16500 119244.000000
208 11597 1 0.16500 119244.000000
209 11275 1 0.16500 119244.000000
209 12747 1 0.16500 119244.000000
210 11275 1 0.16500 119244.000000
210 16114 1 0.16500 119244.000000
211 11275 1 0.16500 119244.000000
211 15345 1 0.16500 119244.000000
212 11275 1 0.16500 119244.000000
212 15940 1 0.16500 119244.000000
213 12835 1 0.16500 119244.000000
213 16100 1 0.16500 119244.000000
214 11276 1 0.16500 119244.000000
214 12835 1 0.16500 119244.000000
215 11276 1 0.16500 119244.000000
215 13918 1 0.16500 119244.000000
216 11276 1 0.16500 119244.000000
216 12974 1 0.16500 119244.000000
217 11277 1 0.16500 119244.000000
217 13932 1 0.16500 119244.000000
218 11277 1 0.16500 119244.000000
218 15131 1 0.16500 119244.000000
219 11277 1 0.16500 119244.000000
219 12090 1 0.16500 119244.000000
220 11277 1 0.16500 119244.000000
220 15297 1 0.16500 119244.000000
221 18453 1 0.16500 119244.000000
221 21993 1 0.16500 119244.000000
222 12818 1 0.16500 119244.000000
222 18453 1 0.16500 119244.000000
223 15953 1 0.16500 119244.000000
223 18453 1 0.16500 119244.000000
224 11278 1 0.16500 119244.000000
224 16093 1 0.16500 119244.000000
225 11278 1 0.16500 119244.000000
225 13553 1 0.16500 119244.000000
226 11278 1 0.16500 119244.000000
226 11601 1 0.16500 119244.000000
227 11278 1 0.16500 119244.000000
227 15976 1 0.16500 119244.000000
228 11279 1 0.16500 119244.000000
228 13153 1 0.16500 119244.000000
229 11279 1 0.16500 119244.000000
229 13729 1 0.16500 119244.000000
230 11279 1 0.16500 119244.000000
230 11827 1 0.16500 119244.000000
231 11279 1 0.16500 119244.000000
231 15654 1 0.16500 119244.000000
232 18465 1 0.16500 119244.000000
232 23841 1 0.16500 119244.000000
233 15739 1 0.16500 119244.000000
233 18465 1 0.16500 119244.000000
234 14828 1 0.16500 119244.000000
234 18465 1 0.16500 119244.000000
235 13783 1 0.16500 119244.000000
235 15859 1 0.16500 119244.000000
236 13783 1 0.16500 119244.000000
236 14208 1 0.16500 119244.000000
237 11280 1 0.16500 119244.000000
237 13783 1 0.16500 119244.000000
238 12997 1 0.16500 119244.000000
238 13783 1 0.16500 119244.000000
239 18477 1 0.16500 119244.000000
239 24288 1 0.16500 119244.000000
240 15436 1 0.16500 119244.000000
240 18477 1 0.16500 119244.000000
241 17883 1 0.16500 119244.000000
241 18477 1 0.16500 119244.000000
242 15602 1 0.16500 119244.000000
242 18489 1 0.16500 119244.000000
243 13186 1 0.16500 119244.000000
243 18489 1 0.16500 119244.000000
244 14534 1 0.16500 119244.000000
244 18489 1 0.16500 119244.000000
245 18501 1 0.16500 119244.000000
245 24519 1 0.16500 119244.000000
246 11281 1 0.16500 119244.000000
246 12647 1 0.16500 119244.000000
247 11281 1 0.16500 119244.000000
247 16053 1 0.16500 119244.000000
248 11281 1 0.16500 119244.000000
248 12690 1 0.16500 119244.000000
249 11281 1 0.16500 119244.000000
249 11348 1 0.16500 119244.000000
250 11627 1 0.16500 119244.000000
250 13350 1 0.16500 119244.000000
251 11282 1 0.16500 119244.000000
251 14788 1 0.16500 119244.000000
252 11282 1 0.16500 119244.000000
252 13949 1 0.16500 119244.000000
253 11282 1 0.16500 119244.000000
253 13350 1 0.16500 119244.000000
254 11716 1 0.16500 119244.000000
254 18513 1 0.16500 119244.000000
255 18513 1 0.16500 119244.000000
255 19425 1 0.16500 119244.000000
256 11283 1 0.16500 119244.000000
256 13719 1 0.16500 119244.000000
257 11283 1 0.16500 119244.000000
257 13525 1 0.16500 119244.000000
258 11283 1 0.16500 119244.000000
258 14474 1 0.16500 119244.000000
259 11283 1 0.16500 119244.000000
259 13782 1 0.16500 119244.000000
260 11284 1 0.16500 119244.000000
260 19665 1 0.16500 119244.000000
261 11284 1 0.16500 119244.000000
261 11913 1 0.16500 119244.000000
262 11284 1 0.16500 119244.000000
262 24372 1 0.16500 119244.000000
263 11284 1 0.16500 119244.000000
263 18549 1 0.16500 119244.000000
264 11285 1 0.16500 119244.000000
264 15594 1 0.16500 119244.000000
265 11285 1 0.16500 119244.000000
265 14152 1 0.16500 119244.000000
266 11285 1 0.16500 119244.000000
266 16159 1 0.16500 119244.000000
267 11285 1 0.16500 119244.000000
267 12087 1 0.16500 119244.000000
268 11286 1 0.16500 119244.000000
268 12610 1 0.16500 119244.000000
269 11286 1 0.16500 119244.000000
269 12729 1 0.16500 119244.000000
270 11286 1 0.16500 119244.000000
270 15242 1 0.16500 119244.000000
271 11286 1 0.16500 119244.000000
271 11320 1 0.16500 119244.000000
272 18525 1 0.16500 119244.000000
272 24408 1 0.16500 119244.000000
273 13815 1 0.16500 119244.000000
273 18525 1 0.16500 119244.000000
274 18525 1 0.16500 119244.000000
274 20877 1 0.16500 119244.000000
275 11287 1 0.16500 119244.000000
275 14434 1 0.16500 119244.000000
276 11287 1 0.16500 119244.000000
276 15247 1 0.16500 119244.000000
277 11287 1 0.16500 119244.000000
277 11978 1 0.16500 119244.000000
278 11287 1 0.16500 119244.000000
278 14150 1 0.16500 119244.000000
279 11288 1 0.16500 119244.000000
279 13171 1 0.16500 119244.000000
280 11288 1 0.16500 119244.000000
280 11814 1 0.16500 119244.000000
281 11288 1 0.16500 119244.000000
281 14964 1 0.16500 119244.000000
282 11288 1 0.16500 119244.000000
282 13654 1 0.16500 119244.000000
283 14532 1 0.16500 119244.000000
283 18537 1 0.16500 119244.000000
284 12838 1 0.16500 119244.000000
284 18537 1 0.16500 119244.000000
285 16637 1 0.16500 119244.000000
285 18537 1 0.16500 119244.000000
286 11289 1 0.16500 119244.000000
286 12105 1 0.16500 119244.000000
287 11289 1 0.16500 119244.000000
287 12829 1 0.16500 119244.000000
288 11289 1 0.16500 119244.000000
288 14233 1 0.16500 119244.000000
289 11289 1 0.16500 119244.000000
289 11297 1 0.16500 119244.000000
290 11290 1 0.16500 119244.000000
290 11707 1 0.16500 119244.000000
291 11290 1 0.16500 119244.000000
291 12038 1 0.16500 119244.000000
292 11290 1 0.16500 119244.000000
292 11367 1 0.16500 119244.000000
293 11707 1 0.16500 119244.000000
293 12555 1 0.16500 119244.000000
294 11291 1 0.16500 119244.000000
294 14299 1 0.16500 119244.000000
295 11291 1 0.16500 119244.000000
295 15613 1 0.16500 119244.000000
296 11291 1 0.16500 119244.000000
296 13235 1 0.16500 119244.000000
297 13235 1 0.16500 119244.000000
297 13552 1 0.16500 119244.000000
298 11292 1 0.16500 119244.000000
298 15047 1 0.16500 119244.000000
299 11292 1 0.16500 119244.000000
299 15165 1 0.16500 119244.000000
300 11292 1 0.16500 119244.000000
300 11909 1 0.16500 119244.000000
301 11292 1 0.16500 119244.000000
301 11892 1 0.16500 119244.000000
302 11293 1 0.16500 119244.000000
302 14145 1 0.16500 119244.000000
303 11293 1 0.16500 119244.000000
303 11963 1 0.16500 119244.000000
304 11293 1 0.16500 119244.000000
304 13974 1 0.16500 119244.000000
305 11293 1 0.16500 119244.000000
305 15243 1 0.16500 119244.000000
306 11294 1 0.16500 119244.000000
306 17393 1 0.16500 119244.000000
307 11294 1 0.16500 119244.000000
307 12849 1 0.16500 119244.000000
308 11294 1 0.16500 119244.000000
308 14270 1 0.16500 119244.000000
309 11294 1 0.16500 119244.000000
309 15755 1 0.16500 119244.000000
310 11295 1 0.16500 119244.000000
310 12363 1 0.16500 119244.000000
311 11295 1 0.16500 119244.000000
311 11541 1 0.16500 119244.000000
312 11295 1 0.16500 119244.000000
312 14974 1 0.16500 119244.000000
313 11295 1 0.16500 119244.000000
313 16123 1 0.16500 119244.000000
314 18549 1 0.16500 119244.000000
314 23925 1 0.16500 119244.000000
315 12631 1 0.16500 119244.000000
315 18549 1 0.16500 119244.000000
316 11296 1 0.16500 119244.000000
316 11509 1 0.16500 119244.000000
317 11296 1 0.16500 119244.000000
317 12577 1 0.16500 119244.000000
318 11296 1 0.16500 119244.000000
318 13903 1 0.16500 119244.000000
319 11296 1 0.16500 119244.000000
319 15402 1 0.16500 119244.000000
320 15531 1 0.16500 119244.000000
320 19629 1 0.16500 119244.000000
321 11297 1 0.16500 119244.000000
321 14961 1 0.16500 119244.000000
322 11297 1 0.16500 119244.000000
322 11894 1 0.16500 119244.000000
323 11297 1 0.16500 119244.000000
323 15816 1 0.16500 119244.000000
324 11298 1 0.16500 119244.000000
324 14739 1 0.16500 119244.000000
325 11298 1 0.16500 119244.000000
325 13931 1 0.16500 119244.000000
326 11298 1 0.16500 119244.000000
326 15088 1 0.16500 119244.000000
327 11298 1 0.16500 119244.000000
327 13633 1 0.16500 119244.000000
328 11299 1 0.16500 119244.000000
328 11613 1 0.16500 119244.000000
329 11299 1 0.16500 119244.000000
329 14400 1 0.16500 119244.000000
330 11299 1 0.16500 119244.000000
330 16135 1 0.16500 119244.000000
331 11299 1 0.16500 119244.000000
331 11454 1 0.16500 119244.000000
332 11300 1 0.16500 119244.000000
332 15316 1 0.16500 119244.000000
333 11300 1 0.16500 119244.000000
333 12036 1 0.16500 119244.000000
334 11300 1 0.16500 119244.000000
334 11927 1 0.16500 119244.000000
335 11300 1 0.16500 119244.000000
335 13657 1 0.16500 119244.000000
336 12596 1 0.16500 119244.000000
336 15108 1 0.16500 119244.000000
337 14752 1 0.16500 119244.000000
337 15108 1 0.16500 119244.000000
338 11301 1 0.16500 119244.000000
338 16048 1 0.16500 119244.000000
339 11562 1 0.16500 119244.000000
339 15108 1 0.16500 119244.000000
340 11302 1 0.16500 119244.000000
340 12467 1 0.16500 119244.000000
341 11302 1 0.16500 119244.000000
341 13637 1 0.16500 119244.000000
342 11302 1 0.16500 119244.000000
342 12556 1 0.16500 119244.000000
343 11302 1 0.16500 119244.000000
343 14267 1 0.16500 119244.000000
344 11303 1 0.16500 119244.000000
344 14450 1 0.16500 119244.000000
345 11303 1 0.16500 119244.000000
345 11607 1 0.16500 119244.000000
346 11303 1 0.16500 119244.000000
346 14760 1 0.16500 119244.000000
347 11303 1 0.16500 119244.000000
347 11356 1 0.16500 119244.000000
348 16231 1 0.16500 119244.000000
348 24375 1 0.16500 119244.000000
349 13841 1 0.16500 119244.000000
349 24375 1 0.16500 119244.000000
350 18561 1 0.16500 119244.000000
350 24375 1 0.16500 119244.000000
351 14090 1 0.16500 119244.000000
351 18561 1 0.16500 119244.000000
352 11304 1 0.16500 119244.000000
352 15541 1 0.16500 119244.000000
353 11304 1 0.16500 119244.000000
353 13412 1 0.16500 119244.000000
354 11304 1 0.16500 119244.000000
354 14155 1 0.16500 119244.000000
355 11304 1 0.16500 119244.000000
355 15943 1 0.16500 119244.000000
356 11305 1 0.16500 119244.000000
356 21321 1 0.16500 119244.000000
357 11305 1 0.16500 119244.000000
357 24300 1 0.16500 119244.000000
358 11305 1 0.16500 119244.000000
358 14778 1 0.16500 119244.000000
359 11305 1 0.16500 119244.000000
359 13715 1 0.16500 119244.000000
360 11306 1 0.16500 119244.000000
360 12545 1 0.16500 119244.000000
361 11306 1 0.16500 119244.000000
361 15518 1 0.16500 119244.000000
362 11306 1 0.16500 119244.000000
362 11403 1 0.16500 119244.000000
363 11306 1 0.16500 119244.000000
363 12308 1 0.16500 119244.000000
364 11307 1 0.16500 119244.000000
364 16057 1 0.16500 119244.000000
365 11307 1 0.16500 119244.000000
365 15838 1 0.16500 119244.000000
366 11307 1 0.16500 119244.000000
366 12507 1 0.16500 119244.000000
367 11307 1 0.16500 119244.000000
367 14078 1 0.16500 119244.000000
368 13582 1 0.16500 119244.000000
368 15869 1 0.16500 119244.000000
369 15869 1 0.16500 119244.000000
369 18573 1 0.16500 119244.000000
370 12199 1 0.16500 119244.000000
370 15869 1 0.16500 119244.000000
371 12897 1 0.16500 119244.000000
371 23985 1 0.16500 119244.000000
372 11308 1 0.16500 119244.000000
372 12897 1 0.16500 119244.000000
373 12897 1 0.16500 119244.000000
373 15168 1 0.16500 119244.000000
374 11308 1 0.16500 119244.000000
374 19245 1 0.16500 119244.000000
375 11366 1 0.16500 119244.000000
375 11682 1 0.16500 119244.000000
376 11682 1 0.16500 119244.000000
376 12533 1 0.16500 119244.000000
377 11309 1 0.16500 119244.000000
377 19581 1 0.16500 119244.000000
378 11309 1 0.16500 119244.000000
378 11682 1 0.16500 119244.000000
379 11310 1 0.16500 119244.000000
379 12453 1 0.16500 119244.000000
380 11310 1 0.16500 119244.000000
380 13369 1 0.16500 119244.000000
381 11310 1 0.16500 119244.000000
381 13875 1 0.16500 119244.000000
382 11310 1 0.16500 119244.000000
382 16049 1 0.16500 119244.000000
383 11311 1 0.16500 119244.000000
383 22833 1 0.16500 119244.000000
384 11311 1 0.16500 119244.000000
384 15002 1 0.16500 119244.000000
385 11311 1 0.16500 119244.000000
385 15484 1 0.16500 119244.000000
386 11311 1 0.16500 119244.000000
386 14130 1 0.16500 119244.000000
387 11312 1 0.16500 119244.000000
387 15112 1 0.16500 119244.000000
388 11312 1 0.16500 119244.000000
388 11374 1 0.16500 119244.000000
389 11312 1 0.16500 119244.000000
389 12737 1 0.16500 119244.000000
390 11312 1 0.16500 119244.000000
390 11517 1 0.16500 119244.000000
391 11313 1 0.16500 119244.000000
391 13125 1 0.16500 119244.000000
392 11313 1 0.16500 119244.000000
392 12881 1 0.16500 119244.000000
393 11313 1 0.16500 119244.000000
393 11709 1 0.16500 119244.000000
394 11313 1 0.16500 119244.000000
394 12386 1 0.16500 119244.000000
395 17715 1 0.16500 119244.000000
395 18585 1 0.16500 119244.000000
396 11674 1 0.16500 119244.000000
396 18585 1 0.16500 119244.000000
397 11314 1 0.16500 119244.000000
397 13946 1 0.16500 119244.000000
398 11467 1 0.16500 119244.000000
398 14112 1 0.16500 119244.000000
399 11314 1 0.16500 119244.000000
399 12399 1 0.16500 119244.000000
400 11314 1 0.16500 119244.000000
400 14112 1 0.16500 119244.000000
401 11315 1 0.16500 119244.000000
401 11382 1 0.16500 119244.000000
402 11315 1 0.16500 119244.000000
402 13862 1 0.16500 119244.000000
403 11315 1 0.16500 119244.000000
403 16139 1 0.16500 119244.000000
404 11315 1 0.16500 119244.000000
404 11412 1 0.16500 119244.000000
405 11316 1 0.16500 119244.000000
405 15295 1 0.16500 119244.000000
406 11316 1 0.16500 119244.000000
406 12817 1 0.16500 119244.000000
407 13338 1 0.16500 119244.000000
407 14956 1 0.16500 119244.000000
408 11316 1 0.16500 119244.000000
408 14956 1 0.16500 119244.000000
409 11317 1 0.16500 119244.000000
409 12256 1 0.16500 119244.000000
410 11317 1 0.16500 119244.000000
410 12768 1 0.16500 119244.000000
411 11317 1 0.16500 119244.000000
411 13882 1 0.16500 119244.000000
412 11317 1 0.16500 119244.000000
412 15890 1 0.16500 119244.000000
413 11318 1 0.16500 119244.000000
413 12890 1 0.16500 119244.000000
414 11318 1 0.16500 119244.000000
414 16158 1 0.16500 119244.000000
415 11318 1 0.16500 119244.000000
415 12387 1 0.16500 119244.000000
416 11318 1 0.16500 119244.000000
416 18107 1 0.16500 119244.000000
417 18597 1 0.16500 119244.000000
417 24306 1 0.16500 119244.000000
418 13004 1 0.16500 119244.000000
418 18597 1 0.16500 119244.000000
419 16017 1 0.16500 119244.000000
419 18597 1 0.16500 119244.000000
420 11319 1 0.16500 119244.000000
420 12973 1 0.16500 119244.000000
421 11319 1 0.16500 119244.000000
421 13791 1 0.16500 119244.000000
422 11319 1 0.16500 119244.000000
422 13695 1 0.16500 119244.000000
423 11319 1 0.16500 119244.000000
423 12926 1 0.16500 119244.000000
424 11320 1 0.16500 119244.000000
424 13993 1 0.16500 119244.000000
425 11320 1 0.16500 119244.000000
425 12534 1 0.16500 119244.000000
426 11320 1 0.16500 119244.000000
426 11348 1 0.16500 119244.000000
427 11321 1 0.16500 119244.000000
427 15483 1 0.16500 119244.000000
428 11321 1 0.16500 119244.000000
428 16030 1 0.16500 119244.000000
429 11321 1 0.16500 119244.000000
429 13909 1 0.16500 119244.000000
430 11321 1 0.16500 119244.000000
430 11417 1 0.16500 119244.000000
431 11322 1 0.16500 119244.000000
431 12520 1 0.16500 119244.000000
432 11322 1 0.16500 119244.000000
432 12592 1 0.16500 119244.000000
433 11322 1 0.16500 119244.000000
433 13189 1 0.16500 119244.000000
434 11322 1 0.16500 119244.000000
434 15384 1 0.16500 119244.000000
435 11899 1 0.16500 119244.000000
435 14054 1 0.16500 119244.000000
436 11323 1 0.16500 119244.000000
436 11899 1 0.16500 119244.000000
437 11323 1 0.16500 119244.000000
437 12868 1 0.16500 119244.000000
438 11323 1 0.16500 119244.000000
438 13675 1 0.16500 119244.000000
439 13214 1 0.16500 119244.000000
439 18609 1 0.16500 119244.000000
440 18609 1 0.16500 119244.000000
440 20013 1 0.16500 119244.000000
441 11324 1 0.16500 119244.000000
441 18275 1 0.16500 119244.000000
442 11324 1 0.16500 119244.000000
442 17463 1 0.16500 119244.000000
443 11324 1 0.16500 119244.000000
443 14912 1 0.16500 119244.000000
444 11324 1 0.16500 119244.000000
444 15391 1 0.16500 119244.000000
445 11325 1 0.16500 119244.000000
445 11371 1 0.16500 119244.000000
446 11325 1 0.16500 119244.000000
446 12518 1 0.16500 119244.000000
447 11325 1 0.16500 119244.000000
447 13778 1 0.16500 119244.000000
448 11325 1 0.16500 119244.000000
448 14438 1 0.16500 119244.000000
449 12883 1 0.16500 119244.000000
449 18621 1 0.16500 119244.000000
450 18621 1 0.16500 119244.000000
450 19557 1 0.16500 119244.000000
451 11326 1 0.16500 119244.000000
451 13248 1 0.16500 119244.000000
452 11326 1 0.16500 119244.000000
452 15530 1 0.16500 119244.000000
453 11326 1 0.16500 119244.000000
453 14053 1 0.16500 119244.000000
454 11326 1 0.16500 119244.000000
454 12611 1 0.16500 119244.000000
455 11327 1 0.16500 119244.000000
455 14131 1 0.16500 119244.000000
456 11327 1 0.16500 119244.000000
456 11715 1 0.16500 119244.000000
457 11327 1 0.16500 119244.000000
457 12195 1 0.16500 119244.000000
458 11327 1 0.16500 119244.000000
458 20361 1 0.16500 119244.000000
459 15962 1 0.16500 119244.000000
459 18633 1 0.16500 119244.000000
460 18633 1 0.16500 119244.000000
460 20985 1 0.16500 119244.000000
461 11328 1 0.16500 119244.000000
461 15179 1 0.16500 119244.000000
462 11328 1 0.16500 119244.000000
462 13110 1 0.16500 119244.000000
463 11328 1 0.16500 119244.000000
463 14546 1 0.16500 119244.000000
464 11328 1 0.16500 119244.000000
464 15190 1 0.16500 119244.000000
465 11329 1 0.16500 119244.000000
465 16084 1 0.16500 119244.000000
466 11329 1 0.16500 119244.000000
466 15887 1 0.16500 119244.000000
467 11329 1 0.16500 119244.000000
467 13624 1 0.16500 119244.000000
468 11329 1 0.16500 119244.000000
468 12776 1 0.16500 119244.000000
469 11330 1 0.16500 119244.000000
469 24060 1 0.16500 119244.000000
470 11330 1 0.16500 119244.000000
470 11913 1 0.16500 119244.000000
471 11330 1 0.16500 119244.000000
471 15217 1 0.16500 119244.000000
472 11330 1 0.16500 119244.000000
472 14141 1 0.16500 119244.000000
473 12880 1 0.16500 119244.000000
473 18645 1 0.16500 119244.000000
474 14639 1 0.16500 119244.000000
474 18645 1 0.16500 119244.000000
475 11331 1 0.16500 119244.000000
475 13614 1 0.16500 119244.000000
476 11331 1 0.16500 119244.000000
476 14473 1 0.16500 119244.000000
477 11331 1 0.16500 119244.000000
477 14564 1 0.16500 119244.000000
478 11331 1 0.16500 119244.000000
478 13088 1 0.16500 119244.000000
479 11332 1 0.16500 119244.000000
479 15167 1 0.16500 119244.000000
480 13720 1 0.16500 119244.000000
480 20493 1 0.16500 119244.000000
481 15941 1 0.16500 119244.000000
481 23973 1 0.16500 119244.000000
482 11332 1 0.16500 119244.000000
482 23973 1 0.16500 119244.000000
483 11333 1 0.16500 119244.000000
483 12715 1 0.16500 119244.000000
484 11333 1 0.16500 119244.000000
484 12644 1 0.16500 119244.000000
485 11333 1 0.16500 119244.000000
485 14275 1 0.16500 119244.000000
486 11333 1 0.16500 119244.000000
486 13886 1 0.16500 119244.000000
487 11334 1 0.16500 119244.000000
487 11799 1 0.16500 119244.000000
488 11334 1 0.16500 119244.000000
488 11436 1 0.16500 119244.000000
489 11334 1 0.16500 119244.000000
489 15805 1 0.16500 119244.000000
490 11334 1 0.16500 119244.000000
490 12991 1 0.16500 119244.000000
491 11335 1 0.16500 119244.000000
491 16427 1 0.16500 119244.000000
492 11335 1 0.16500 119244.000000
492 13728 1 0.16500 119244.000000
493 11335 1 0.16500 119244.000000
493 16158 1 0.16500 119244.000000
494 11335 1 0.16500 119244.000000
494 15466 1 0.16500 119244.000000
495 13419 1 0.16500 119244.000000
495 15775 1 0.16500 119244.000000
496 11336 1 0.16500 119244.000000
496 15248 1 0.16500 119244.000000
497 11336 1 0.16500 119244.000000
497 13419 1 0.16500 119244.000000
498 11336 1 0.16500 119244.000000
498 15062 1 0.16500 119244.000000
499 14542 1 0.16500 119244.000000
499 16441 1 0.16500 119244.000000
500 11337 1 0.16500 119244.000000
500 14549 1 0.16500 119244.000000
501 11337 1 0.16500 119244.000000
501 11697 1 0.16500 119244.000000
502 11337 1 0.16500 119244.000000
502 14822 1 0.16500 119244.000000
503 11337 1 0.16500 119244.000000
503 11344 1 0.16500 119244.000000
504 11338 1 0.16500 119244.000000
504 14892 1 0.16500 119244.000000
505 11338 1 0.16500 119244.000000
505 12984 1 0.16500 119244.000000
506 11338 1 0.16500 119244.000000
506 14354 1 0.16500 119244.000000
507 11338 1 0.16500 119244.000000
507 12237 1 0.16500 119244.000000
508 11339 1 0.16500 119244.000000
508 13226 1 0.16500 119244.000000
509 11339 1 0.16500 119244.000000
509 13358 1 0.16500 119244.000000
510 11339 1 0.16500 119244.000000
510 13155 1 0.16500 119244.000000
511 11339 1 0.16500 119244.000000
511 15202 1 0.16500 119244.000000
512 11340 1 0.16500 119244.000000
512 16469 1 0.16500 119244.000000
513 11340 1 0.16500 119244.000000
513 12054 1 0.16500 119244.000000
514 11340 1 0.16500 119244.000000
514 18065 1 0.16500 119244.000000
515 12933 1 0.16500 119244.000000
515 18657 1 0.16500 119244.000000
516 15612 1 0.16500 119244.000000
516 18657 1 0.16500 119244.000000
517 14514 1 0.16500 119244.000000
517 18657 1 0.16500 119244.000000
518 18669 1 0.16500 119244.000000
518 24420 1 0.16500 119244.000000
519 18669 1 0.16500 119244.000000
519 20793 1 0.16500 119244.000000
520 16035 1 0.16500 119244.000000
520 18669 1 0.16500 119244.000000
521 11341 1 0.16500 119244.000000
521 21897 1 0.16500 119244.000000
522 11341 1 0.16500 119244.000000
522 15012 1 0.16500 119244.000000
523 20973 1 0.16500 119244.000000
523 21897 1 0.16500 119244.000000
524 11341 1 0.16500 119244.000000
524 12058 1 0.16500 119244.000000
525 11342 1 0.16500 119244.000000
525 15930 1 0.16500 119244.000000
526 11342 1 0.16500 119244.000000
526 16132 1 0.16500 119244.000000
527 11342 1 0.16500 119244.000000
527 15984 1 0.16500 119244.000000
528 11342 1 0.16500 119244.000000
528 11728 1 0.16500 119244.000000
529 11343 1 0.16500 119244.000000
529 12373 1 0.16500 119244.000000
530 11343 1 0.16500 119244.000000
530 15215 1 0.16500 119244.000000
531 11343 1 0.16500 119244.000000
531 11501 1 0.16500 119244.000000
532 11343 1 0.16500 119244.000000
532 15347 1 0.16500 119244.000000
533 11344 1 0.16500 119244.000000
533 11968 1 0.16500 119244.000000
534 11344 1 0.16500 119244.000000
534 15056 1 0.16500 119244.000000
535 11344 1 0.16500 119244.000000
535 12760 1 0.16500 119244.000000
536 11345 1 0.16500 119244.000000
536 15433 1 0.16500 119244.000000
537 11345 1 0.16500 119244.000000
537 12202 1 0.16500 119244.000000
538 11345 1 0.16500 119244.000000
538 15524 1 0.16500 119244.000000
539 11346 1 0.16500 119244.000000
539 13704 1 0.16500 119244.000000
540 11346 1 0.16500 119244.000000
540 15344 1 0.16500 119244.000000
541 11346 1 0.16500 119244.000000
541 13299 1 0.16500 119244.000000
542 11346 1 0.16500 119244.000000
542 12650 1 0.16500 119244.000000
543 12117 1 0.16500 119244.000000
543 12408 1 0.16500 119244.000000
544 12408 1 0.16500 119244.000000
544 15908 1 0.16500 119244.000000
545 11347 1 0.16500 119244.000000
545 12408 1 0.16500 119244.000000
546 11348 1 0.16500 119244.000000
546 12666 1 0.16500 119244.000000
547 11348 1 0.16500 119244.000000
547 12276 1 0.16500 119244.000000
548 11349 1 0.16500 119244.000000
548 15678 1 0.16500 119244.000000
549 11349 1 0.16500 119244.000000
549 14019 1 0.16500 119244.000000
550 11349 1 0.16500 119244.000000
550 15234 1 0.16500 119244.000000
551 11349 1 0.16500 119244.000000
551 15486 1 0.16500 119244.000000
552 11350 1 0.16500 119244.000000
552 12992 1 0.16500 119244.000000
553 11350 1 0.16500 119244.000000
553 11489 1 0.16500 119244.000000
554 11350 1 0.16500 119244.000000
554 15407 1 0.16500 119244.000000
555 11489 1 0.16500 119244.000000
555 12814 1 0.16500 119244.000000
556 15838 1 0.16500 119244.000000
556 18681 1 0.16500 119244.000000
557 13199 1 0.16500 119244.000000
557 18681 1 0.16500 119244.000000
558 13660 1 0.16500 119244.000000
558 18681 1 0.16500 119244.000000
559 11351 1 0.16500 119244.000000
559 12314 1 0.16500 119244.000000
560 11351 1 0.16500 119244.000000
560 11628 1 0.16500 119244.000000
561 11351 1 0.16500 119244.000000
561 12585 1 0.16500 119244.000000
562 11352 1 0.16500 119244.000000
562 16115 1 0.16500 119244.000000
563 11352 1 0.16500 119244.000000
563 12204 1 0.16500 119244.000000
564 11352 1 0.16500 119244.000000
564 14737 1 0.16500 119244.000000
565 11352 1 0.16500 119244.000000
565 13793 1 0.16500 119244.000000
566 11353 1 0.16500 119244.000000
566 11931 1 0.16500 119244.000000
567 11353 1 0.16500 119244.000000
567 13790 1 0.16500 119244.000000
568 11353 1 0.16500 119244.000000
568 24039 1 0.16500 119244.000000
569 11353 1 0.16500 119244.000000
569 12968 1 0.16500 119244.000000
570 11354 1 0.16500 119244.000000
570 11473 1 0.16500 119244.000000
571 11354 1 0.16500 119244.000000
571 12343 1 0.16500 119244.000000
572 11354 1 0.16500 119244.000000
572 15992 1 0.16500 119244.000000
573 11354 1 0.16500 119244.000000
573 13150 1 0.16500 119244.000000
574 11355 1 0.16500 119244.000000
574 14445 1 0.16500 119244.000000
575 11355 1 0.16500 119244.000000
575 15093 1 0.16500 119244.000000
576 11355 1 0.16500 119244.000000
576 13047 1 0.16500 119244.000000
577 11355 1 0.16500 119244.000000
577 12227 1 0.16500 119244.000000
578 14296 1 0.16500 119244.000000
578 18693 1 0.16500 119244.000000
579 18693 1 0.16500 119244.000000
579 19953 1 0.16500 119244.000000
580 11356 1 0.16500 119244.000000
580 11926 1 0.16500 119244.000000
581 11356 1 0.16500 119244.000000
581 11778 1 0.16500 119244.000000
582 11356 1 0.16500 119244.000000
582 13347 1 0.16500 119244.000000
583 14357 1 0.16500 119244.000000
583 18705 1 0.16500 119244.000000
584 13078 1 0.16500 119244.000000
584 18705 1 0.16500 119244.000000
585 11357 1 0.16500 119244.000000
585 15695 1 0.16500 119244.000000
586 11357 1 0.16500 119244.000000
586 15096 1 0.16500 119244.000000
587 11357 1 0.16500 119244.000000
587 16053 1 0.16500 119244.000000
588 11357 1 0.16500 119244.000000
588 12055 1 0.16500 119244.000000
589 11358 1 0.16500 119244.000000
589 14305 1 0.16500 119244.000000
590 11358 1 0.16500 119244.000000
590 15920 1 0.16500 119244.000000
591 11358 1 0.16500 119244.000000
591 12174 1 0.16500 119244.000000
592 11358 1 0.16500 119244.000000
592 12867 1 0.16500 119244.000000
593 11359 1 0.16500 119244.000000
593 12000 1 0.16500 119244.000000
594 11359 1 0.16500 119244.000000
594 14321 1 0.16500 119244.000000
595 11359 1 0.16500 119244.000000
595 15262 1 0.16500 119244.000000
596 11359 1 0.16500 119244.000000
596 14475 1 0.16500 119244.000000
597 11360 1 0.16500 119244.000000
597 14114 1 0.16500 119244.000000
598 11360 1 0.16500 119244.000000
598 17365 1 0.16500 119244.000000
599 11360 1 0.16500 119244.000000
599 11406 1 0.16500 119244.000000
600 11360 1 0.16500 119244.000000
600 12987 1 0.16500 119244.000000
601 17043 1 0.16500 119244.000000
601 18717 1 0.16500 119244.000000
602 15110 1 0.16500 119244.000000
602 18717 1 0.16500 119244.000000
603 17673 1 0.16500 119244.000000
603 18717 1 0.16500 119244.000000
604 11361 1 0.16500 119244.000000
604 14161 1 0.16500 119244.000000
605 11361 1 0.16500 119244.000000
605 14377 1 0.16500 119244.000000
606 11361 1 0.16500 119244.000000
606 11362 1 0.16500 119244.000000
607 11361 1 0.16500 119244.000000
607 15733 1 0.16500 119244.000000
608 11362 1 0.16500 119244.000000
608 12600 1 0.16500 119244.000000
609 11362 1 0.16500 119244.000000
609 11479 1 0.16500 119244.000000
610 11362 1 0.16500 119244.000000
610 12503 1 0.16500 119244.000000
611 11363 1 0.16500 119244.000000
611 13349 1 0.16500 119244.000000
612 11363 1 0.16500 119244.000000
612 12110 1 0.16500 119244.000000
613 11363 1 0.16500 119244.000000
613 15366 1 0.16500 119244.000000
614 11363 1 0.16500 119244.000000
614 16189 1 0.16500 119244.000000
615 11364 1 0.16500 119244.000000
615 14607 1 0.16500 119244.000000
616 11364 1 0.16500 119244.000000
616 14132 1 0.16500 119244.000000
617 11364 1 0.16500 119244.000000
617 14917 1 0.16500 119244.000000
618 11364 1 0.16500 119244.000000
618 13890 1 0.16500 119244.000000
619 14578 1 0.16500 119244.000000
619 18729 1 0.16500 119244.000000
620 18729 1 0.16500 119244.000000
620 24207 1 0.16500 119244.000000
621 14271 1 0.16500 119244.000000
621 18729 1 0.16500 119244.000000
622 11365 1 0.16500 119244.000000
622 15188 1 0.16500 119244.000000
623 11365 1 0.16500 119244.000000
623 12425 1 0.16500 119244.000000
624 11365 1 0.16500 119244.000000
624 13135 1 0.16500 119244.000000
625 11365 1 0.16500 119244.000000
625 13528 1 0.16500 119244.000000
626 11366 1 0.16500 119244.000000
626 14813 1 0.16500 119244.000000
627 11366 1 0.16500 119244.000000
627 15098 1 0.16500 119244.000000
628 11366 1 0.16500 119244.000000
628 11840 1 0.16500 119244.000000
629 11367 1 0.16500 119244.000000
629 11374 1 0.16500 119244.000000
630 11367 1 0.16500 119244.000000
630 13535 1 0.16500 119244.000000
631 11367 1 0.16500 119244.000000
631 15315 1 0.16500 119244.000000
632 11368 1 0.16500 119244.000000
632 15387 1 0.16500 119244.000000
633 11368 1 0.16500 119244.000000
633 13708 1 0.16500 119244.000000
634 11368 1 0.16500 119244.000000
634 12219 1 0.16500 119244.000000
635 11368 1 0.16500 119244.000000
635 11905 1 0.16500 119244.000000
636 11369 1 0.16500 119244.000000
636 15071 1 0.16500 119244.000000
637 11369 1 0.16500 119244.000000
637 11966 1 0.16500 119244.000000
638 11369 1 0.16500 119244.000000
638 13993 1 0.16500 119244.000000
639 11369 1 0.16500 119244.000000
639 14842 1 0.16500 119244.000000
640 11370 1 0.16500 119244.000000
640 11643 1 0.16500 119244.000000
641 11370 1 0.16500 119244.000000
641 12119 1 0.16500 119244.000000
642 11370 1 0.16500 119244.000000
642 13805 1 0.16500 119244.000000
643 11370 1 0.16500 119244.000000
643 14821 1 0.16500 119244.000000
644 11371 1 0.16500 119244.000000
644 12109 1 0.16500 119244.000000
645 11371 1 0.16500 119244.000000
645 16205 1 0.16500 119244.000000
646 11371 1 0.16500 119244.000000
646 11618 1 0.16500 119244.000000
647 11372 1 0.16500 119244.000000
647 12528 1 0.16500 119244.000000
648 11372 1 0.16500 119244.000000
648 14306 1 0.16500 119244.000000
649 11372 1 0.16500 119244.000000
649 13864 1 0.16500 119244.000000
650 11372 1 0.16500 119244.000000
650 15238 1 0.16500 119244.000000
651 11373 1 0.16500 119244.000000
651 13342 1 0.16500 119244.000000
652 11373 1 0.16500 119244.000000
652 24477 1 0.16500 119244.000000
653 11373 1 0.16500 119244.000000
653 13888 1 0.16500 119244.000000
654 11373 1 0.16500 119244.000000
654 21165 1 0.16500 119244.000000
655 11374 1 0.16500 119244.000000
655 11936 1 0.16500 119244.000000
656 11374 1 0.16500 119244.000000
656 11741 1 0.16500 119244.000000
657 11375 1 0.16500 119244.000000
657 13456 1 0.16500 119244.000000
658 11375 1 0.16500 119244.000000
658 12312 1 0.16500 119244.000000
659 11375 1 0.16500 119244.000000
659 13054 1 0.16500 119244.000000
660 12312 1 0.16500 119244.000000
660 16196 1 0.16500 119244.000000
661 11376 1 0.16500 119244.000000
661 15686 1 0.16500 119244.000000
662 11376 1 0.16500 119244.000000
662 16122 1 0.16500 119244.000000
663 14222 1 0.16500 119244.000000
663 16122 1 0.16500 119244.000000
664 11376 1 0.16500 119244.000000
664 12338 1 0.16500 119244.000000
665 11377 1 0.16500 119244.000000
665 15400 1 0.16500 119244.000000
666 14200 1 0.16500 119244.000000
666 15400 1 0.16500 119244.000000
667 11377 1 0.16500 119244.000000
667 12986 1 0.16500 119244.000000
668 11377 1 0.16500 119244.000000
668 11530 1 0.16500 119244.000000
669 12118 1 0.16500 119244.000000
669 18741 1 0.16500 119244.000000
670 14669 1 0.16500 119244.000000
670 18741 1 0.16500 119244.000000
671 11378 1 0.16500 119244.000000
671 13826 1 0.16500 119244.000000
672 11378 1 0.16500 119244.000000
672 14697 1 0.16500 119244.000000
673 12144 1 0.16500 119244.000000
673 13826 1 0.16500 119244.000000
674 11378 1 0.16500 119244.000000
674 12592 1 0.16500 119244.000000
675 12334 1 0.16500 119244.000000
675 18753 1 0.16500 119244.000000
676 18753 1 0.16500 119244.000000
676 24150 1 0.16500 119244.000000
677 11688 1 0.16500 119244.000000
677 18753 1 0.16500 119244.000000
678 11379 1 0.16500 119244.000000
678 11418 1 0.16500 119244.000000
679 11379 1 0.16500 119244.000000
679 13630 1 0.16500 119244.000000
680 11379 1 0.16500 119244.000000
680 15993 1 0.16500 119244.000000
681 11418 1 0.16500 119244.000000
681 15440 1 0.16500 119244.000000
682 11380 1 0.16500 119244.000000
682 12647 1 0.16500 119244.000000
683 13785 1 0.16500 119244.000000
683 15242 1 0.16500 119244.000000
684 11380 1 0.16500 119244.000000
684 13423 1 0.16500 119244.000000
685 11380 1 0.16500 119244.000000
685 13785 1 0.16500 119244.000000
686 11381 1 0.16500 119244.000000
686 12943 1 0.16500 119244.000000
687 11381 1 0.16500 119244.000000
687 11516 1 0.16500 119244.000000
688 11381 1 0.16500 119244.000000
688 15428 1 0.16500 119244.000000
689 11381 1 0.16500 119244.000000
689 14728 1 0.16500 119244.000000
690 11382 1 0.16500 119244.000000
690 11832 1 0.16500 119244.000000
691 11635 1 0.16500 119244.000000
691 12753 1 0.16500 119244.000000
692 11382 1 0.16500 119244.000000
692 11635 1 0.16500 119244.000000
693 11383 1 0.16500 119244.000000
693 13413 1 0.16500 119244.000000
694 11383 1 0.16500 119244.000000
694 13679 1 0.16500 119244.000000
695 11383 1 0.16500 119244.000000
695 11860 1 0.16500 119244.000000
696 11383 1 0.16500 119244.000000
696 19617 1 0.16500 119244.000000
697 11384 1 0.16500 119244.000000
697 13424 1 0.16500 119244.000000
698 11384 1 0.16500 119244.000000
698 13225 1 0.16500 119244.000000
699 11384 1 0.16500 119244.000000
699 11895 1 0.16500 119244.000000
700 11384 1 0.16500 119244.000000
700 12553 1 0.16500 119244.000000
701 11385 1 0.16500 119244.000000
701 12723 1 0.16500 119244.000000
702 11385 1 0.16500 119244.000000
702 14008 1 0.16500 119244.000000
703 11385 1 0.16500 119244.000000
703 14247 1 0.16500 119244.000000
704 11386 1 0.16500 119244.000000
704 12299 1 0.16500 119244.000000
705 11386 1 0.16500 119244.000000
705 13801 1 0.16500 119244.000000
706 11386 1 0.16500 119244.000000
706 13874 1 0.16500 119244.000000
707 11386 1 0.16500 119244.000000
707 13165 1 0.16500 119244.000000
708 11387 1 0.16500 119244.000000
708 24459 1 0.16500 119244.000000
709 11387 1 0.16500 119244.000000
709 12507 1 0.16500 119244.000000
710 11387 1 0.16500 119244.000000
710 14376 1 0.16500 119244.000000
711 11387 1 0.16500 119244.000000
711 13103 1 0.16500 119244.000000
712 11388 1 0.16500 119244.000000
712 16183 1 0.16500 119244.000000
713 11388 1 0.16500 119244.000000
713 14248 1 0.16500 119244.000000
714 11388 1 0.16500 119244.000000
714 14353 1 0.16500 119244.000000
715 14353 1 0.16500 119244.000000
715 14762 1 0.16500 119244.000000
716 13091 1 0.16500 119244.000000
716 15110 1 0.16500 119244.000000
717 11389 1 0.16500 119244.000000
717 15110 1 0.16500 119244.000000
718 11389 1 0.16500 119244.000000
718 20433 1 0.16500 119244.000000
719 14793 1 0.16500 119244.000000
719 18765 1 0.16500 119244.000000
720 12092 1 0.16500 119244.000000
720 18765 1 0.16500 119244.000000
721 18765 1 0.16500 119244.000000
721 24495 1 0.16500 119244.000000
722 14037 1 0.16500 119244.000000
722 18777 1 0.16500 119244.000000
723 11423 1 0.16500 119244.000000
723 13734 1 0.16500 119244.000000
724 13734 1 0.16500 119244.000000
724 14037 1 0.16500 119244.000000
725 11390 1 0.16500 119244.000000
725 13425 1 0.16500 119244.000000
726 11390 1 0.16500 119244.000000
726 13311 1 0.16500 119244.000000
727 11390 1 0.16500 119244.000000
727 12202 1 0.16500 119244.000000
728 11390 1 0.16500 119244.000000
728 12730 1 0.16500 119244.000000
729 11391 1 0.16500 119244.000000
729 12080 1 0.16500 119244.000000
730 11391 1 0.16500 119244.000000
730 15638 1 0.16500 119244.000000
731 11391 1 0.16500 119244.000000
731 15858 1 0.16500 119244.000000
732 11391 1 0.16500 119244.000000
732 12480 1 0.16500 119244.000000
733 11392 1 0.16500 119244.000000
733 15235 1 0.16500 119244.000000
734 11392 1 0.16500 119244.000000
734 11888 1 0.16500 119244.000000
735 11392 1 0.16500 119244.000000
735 15885 1 0.16500 119244.000000
736 11392 1 0.16500 119244.000000
736 14475 1 0.16500 119244.000000
737 11393 1 0.16500 119244.000000
737 15314 1 0.16500 119244.000000
738 11393 1 0.16500 119244.000000
738 12192 1 0.16500 119244.000000
739 11393 1 0.16500 119244.000000
739 12187 1 0.16500 119244.000000
740 11393 1 0.16500 119244.000000
740 12318 1 0.16500 119244.000000
741 11394 1 0.16500 119244.000000
741 19485 1 0.16500 119244.000000
742 11394 1 0.16500 119244.000000
742 21585 1 0.16500 119244.000000
743 11394 1 0.16500 119244.000000
743 14482 1 0.16500 119244.000000
744 11394 1 0.16500 119244.000000
744 22641 1 0.16500 119244.000000
745 11395 1 0.16500 119244.000000
745 12101 1 0.16500 119244.000000
746 11395 1 0.16500 119244.000000
746 13330 1 0.16500 119244.000000
747 11395 1 0.16500 119244.000000
747 13859 1 0.16500 119244.000000
748 11395 1 0.16500 119244.000000
748 14566 1 0.16500 119244.000000
749 11396 1 0.16500 119244.000000
749 15064 1 0.16500 119244.000000
750 11396 1 0.16500 119244.000000
750 14451 1 0.16500 119244.000000
751 11396 1 0.16500 119244.000000
751 14945 1 0.16500 119244.000000
752 11396 1 0.16500 119244.000000
752 13270 1 0.16500 119244.000000
753 11397 1 0.16500 119244.000000
753 12404 1 0.16500 119244.000000
754 11397 1 0.16500 119244.000000
754 12388 1 0.16500 119244.000000
755 11397 1 0.16500 119244.000000
755 12104 1 0.16500 119244.000000
756 11397 1 0.16500 119244.000000
756 11859 1 0.16500 119244.000000
757 11398 1 0.16500 119244.000000
757 12331 1 0.16500 119244.000000
758 11398 1 0.16500 119244.000000
758 11488 1 0.16500 119244.000000
759 11398 1 0.16500 119244.000000
759 12697 1 0.16500 119244.000000
760 11380 1 0.16500 119244.000000
760 11398 1 0.16500 119244.000000
761 11399 1 0.16500 119244.000000
761 12824 1 0.16500 119244.000000
762 11399 1 0.16500 119244.000000
762 12791 1 0.16500 119244.000000
763 11399 1 0.16500 119244.000000
763 14670 1 0.16500 119244.000000
764 11399 1 0.16500 119244.000000
764 15390 1 0.16500 119244.000000
765 11400 1 0.16500 119244.000000
765 13622 1 0.16500 119244.000000
766 11400 1 0.16500 119244.000000
766 14198 1 0.16500 119244.000000
767 11400 1 0.16500 119244.000000
767 13718 1 0.16500 119244.000000
768 11400 1 0.16500 119244.000000
768 14386 1 0.16500 119244.000000
769 11401 1 0.16500 119244.000000
769 11860 1 0.16500 119244.000000
770 11301 1 0.16500 119244.000000
770 11401 1 0.16500 119244.000000
771 11401 1 0.16500 119244.000000
771 13846 1 0.16500 119244.000000
772 11401 1 0.16500 119244.000000
772 14367 1 0.16500 119244.000000
773 11402 1 0.16500 119244.000000
773 13301 1 0.16500 119244.000000
774 11402 1 0.16500 119244.000000
774 14944 1 0.16500 119244.000000
775 11402 1 0.16500 119244.000000
775 16973 1 0.16500 119244.000000
776 11403 1 0.16500 119244.000000
776 15610 1 0.16500 119244.000000
777 11403 1 0.16500 119244.000000
777 13542 1 0.16500 119244.000000
778 13542 1 0.16500 119244.000000
778 14113 1 0.16500 119244.000000
779 11404 1 0.16500 119244.000000
779 24180 1 0.16500 119244.000000
780 11404 1 0.16500 119244.000000
780 13551 1 0.16500 119244.000000
781 11404 1 0.16500 119244.000000
781 12271 1 0.16500 119244.000000
782 11404 1 0.16500 119244.000000
782 16004 1 0.16500 119244.000000
783 18789 1 0.16500 119244.000000
783 23940 1 0.16500 119244.000000
784 12079 1 0.16500 119244.000000
784 18789 1 0.16500 119244.000000
785 18789 1 0.16500 119244.000000
785 24579 1 0.16500 119244.000000
786 11405 1 0.16500 119244.000000
786 14093 1 0.16500 119244.000000
787 11405 1 0.16500 119244.000000
787 12988 1 0.16500 119244.000000
788 11405 1 0.16500 119244.000000
788 13978 1 0.16500 119244.000000
789 11405 1 0.16500 119244.000000
789 15665 1 0.16500 119244.000000
790 15947 1 0.16500 119244.000000
790 18801 1 0.16500 119244.000000
791 15771 1 0.16500 119244.000000
791 18801 1 0.16500 119244.000000
792 18801 1 0.16500 119244.000000
792 24270 1 0.16500 119244.000000
793 14166 1 0.16500 119244.000000
793 24147 1 0.16500 119244.000000
794 11406 1 0.16500 119244.000000
794 15072 1 0.16500 119244.000000
795 11406 1 0.16500 119244.000000
795 15578 1 0.16500 119244.000000
796 11406 1 0.16500 119244.000000
796 20697 1 0.16500 119244.000000
797 12452 1 0.16500 119244.000000
797 18813 1 0.16500 119244.000000
798 13812 1 0.16500 119244.000000
798 18813 1 0.16500 119244.000000
799 18813 1 0.16500 119244.000000
799 23409 1 0.16500 119244.000000
800 12804 1 0.16500 119244.000000
800 18825 1 0.16500 119244.000000
801 18825 1 0.16500 119244.000000
801 20133 1 0.16500 119244.000000
802 11407 1 0.16500 119244.000000
802 15336 1 0.16500 119244.000000
803 11407 1 0.16500 119244.000000
803 14913 1 0.16500 119244.000000
804 11407 1 0.16500 119244.000000
804 12598 1 0.16500 119244.000000
805 11407 1 0.16500 119244.000000
805 13381 1 0.16500 119244.000000
806 11408 1 0.16500 119244.000000
806 11713 1 0.16500 119244.000000
807 11408 1 0.16500 119244.000000
807 15810 1 0.16500 119244.000000
808 11408 1 0.16500 119244.000000
808 12946 1 0.16500 119244.000000
809 11713 1 0.16500 119244.000000
809 13746 1 0.16500 119244.000000
810 14483 1 0.16500 119244.000000
810 15451 1 0.16500 119244.000000
811 11626 1 0.16500 119244.000000
811 15451 1 0.16500 119244.000000
812 15451 1 0.16500 119244.000000
812 15854 1 0.16500 119244.000000
813 11409 1 0.16500 119244.000000
813 15451 1 0.16500 119244.000000
814 11410 1 0.16500 119244.000000
814 24222 1 0.16500 119244.000000
815 11410 1 0.16500 119244.000000
815 22329 1 0.16500 119244.000000
816 11410 1 0.16500 119244.000000
816 13611 1 0.16500 119244.000000
817 11410 1 0.16500 119244.000000
817 15962 1 0.16500 119244.000000
818 11411 1 0.16500 119244.000000
818 12934 1 0.16500 119244.000000
819 11411 1 0.16500 119244.000000
819 15757 1 0.16500 119244.000000
820 11411 1 0.16500 119244.000000
820 14520 1 0.16500 119244.000000
821 11411 1 0.16500 119244.000000
821 14884 1 0.16500 119244.000000
822 11412 1 0.16500 119244.000000
822 12132 1 0.16500 119244.000000
823 11412 1 0.16500 119244.000000
823 13253 1 0.16500 119244.000000
824 11412 1 0.16500 119244.000000
824 16044 1 0.16500 119244.000000
825 11413 1 0.16500 119244.000000
825 16012 1 0.16500 119244.000000
826 15573 1 0.16500 119244.000000
826 16012 1 0.16500 119244.000000
827 11413 1 0.16500 119244.000000
827 15065 1 0.16500 119244.000000
828 11413 1 0.16500 119244.000000
828 11876 1 0.16500 119244.000000
829 11414 1 0.16500 119244.000000
829 14740 1 0.16500 119244.000000
830 11414 1 0.16500 119244.000000
830 13954 1 0.16500 119244.000000
831 11414 1 0.16500 119244.000000
831 14191 1 0.16500 119244.000000
832 11414 1 0.16500 119244.000000
832 13849 1 0.16500 119244.000000
833 11415 1 0.16500 119244.000000
833 15819 1 0.16500 119244.000000
834 11415 1 0.16500 119244.000000
834 15772 1 0.16500 119244.000000
835 11415 1 0.16500 119244.000000
835 15344 1 0.16500 119244.000000
836 11415 1 0.16500 119244.000000
836 15556 1 0.16500 119244.000000
837 18837 1 0.16500 119244.000000
837 20829 1 0.16500 119244.000000
838 13068 1 0.16500 119244.000000
838 18837 1 0.16500 119244.000000
839 15402 1 0.16500 119244.000000
839 18837 1 0.16500 119244.000000
840 18849 1 0.16500 119244.000000
840 20445 1 0.16500 119244.000000
841 11416 1 0.16500 119244.000000
841 12473 1 0.16500 119244.000000
842 11416 1 0.16500 119244.000000
842 15859 1 0.16500 119244.000000
843 11409 1 0.16500 119244.000000
843 11416 1 0.16500 119244.000000
844 11416 1 0.16500 119244.000000
844 14407 1 0.16500 119244.000000
845 19605 1 0.16500 119244.000000
845 23829 1 0.16500 119244.000000
846 11417 1 0.16500 119244.000000
846 14396 1 0.16500 119244.000000
847 11417 1 0.16500 119244.000000
847 11839 1 0.16500 119244.000000
848 11417 1 0.16500 119244.000000
848 12589 1 0.16500 119244.000000
849 11418 1 0.16500 119244.000000
849 14007 1 0.16500 119244.000000
850 11379 1 0.16500 119244.000000
850 12891 1 0.16500 119244.000000
851 11418 1 0.16500 119244.000000
851 15004 1 0.16500 119244.000000
852 11419 1 0.16500 119244.000000
852 15634 1 0.16500 119244.000000
853 11419 1 0.16500 119244.000000
853 24285 1 0.16500 119244.000000
854 11419 1 0.16500 119244.000000
854 11720 1 0.16500 119244.000000
855 11419 1 0.16500 119244.000000
855 12115 1 0.16500 119244.000000
856 11420 1 0.16500 119244.000000
856 11470 1 0.16500 119244.000000
857 11420 1 0.16500 119244.000000
857 14168 1 0.16500 119244.000000
858 11420 1 0.16500 119244.000000
858 12623 1 0.16500 119244.000000
859 11420 1 0.16500 119244.000000
859 15465 1 0.16500 119244.000000
860 11421 1 0.16500 119244.000000
860 14510 1 0.16500 119244.000000
861 11421 1 0.16500 119244.000000
861 12594 1 0.16500 119244.000000
862 11421 1 0.16500 119244.000000
862 15935 1 0.16500 119244.000000
863 11421 1 0.16500 119244.000000
863 15983 1 0.16500 119244.000000
864 11422 1 0.16500 119244.000000
864 21729 1 0.16500 119244.000000
865 11422 1 0.16500 119244.000000
865 11452 1 0.16500 119244.000000
866 11452 1 0.16500 119244.000000
866 14796 1 0.16500 119244.000000
867 11422 1 0.16500 119244.000000
867 24597 1 0.16500 119244.000000
868 11423 1 0.16500 119244.000000
868 22617 1 0.16500 119244.000000
869 11423 1 0.16500 119244.000000
869 11465 1 0.16500 119244.000000
870 11423 1 0.16500 119244.000000
870 12994 1 0.16500 119244.000000
871 11424 1 0.16500 119244.000000
871 12623 1 0.16500 119244.000000
872 11424 1 0.16500 119244.000000
872 13379 1 0.16500 119244.000000
873 11424 1 0.16500 119244.000000
873 14942 1 0.16500 119244.000000
874 11424 1 0.16500 119244.000000
874 15358 1 0.16500 119244.000000
875 11425 1 0.16500 119244.000000
875 11857 1 0.16500 119244.000000
876 11425 1 0.16500 119244.000000
876 11935 1 0.16500 119244.000000
877 11425 1 0.16500 119244.000000
877 15192 1 0.16500 119244.000000
878 11425 1 0.16500 119244.000000
878 12893 1 0.16500 119244.000000
879 11426 1 0.16500 119244.000000
879 15676 1 0.16500 119244.000000
880 11426 1 0.16500 119244.000000
880 14994 1 0.16500 119244.000000
881 11426 1 0.16500 119244.000000
881 14242 1 0.16500 119244.000000
882 11426 1 0.16500 119244.000000
882 12214 1 0.16500 119244.000000
883 11427 1 0.16500 119244.000000
883 13200 1 0.16500 119244.000000
884 11427 1 0.16500 119244.000000
884 15070 1 0.16500 119244.000000
885 11427 1 0.16500 119244.000000
885 14922 1 0.16500 119244.000000
886 11427 1 0.16500 119244.000000
886 14195 1 0.16500 119244.000000
887 11428 1 0.16500 119244.000000
887 13743 1 0.16500 119244.000000
888 11428 1 0.16500 119244.000000
888 14097 1 0.16500 119244.000000
889 11428 1 0.16500 119244.000000
889 20973 1 0.16500 119244.000000
890 11429 1 0.16500 119244.000000
890 14262 1 0.16500 119244.000000
891 11429 1 0.16500 119244.000000
891 13346 1 0.16500 119244.000000
892 11429 1 0.16500 119244.000000
892 15794 1 0.16500 119244.000000
893 11429 1 0.16500 119244.000000
893 12368 1 0.16500 119244.000000
894 11430 1 0.16500 119244.000000
894 11512 1 0.16500 119244.000000
895 11842 1 0.16500 119244.000000
895 12235 1 0.16500 119244.000000
896 11512 1 0.16500 119244.000000
896 24297 1 0.16500 119244.000000
897 12235 1 0.16500 119244.000000
897 14560 1 0.16500 119244.000000
898 11431 1 0.16500 119244.000000
898 13776 1 0.16500 119244.000000
899 11431 1 0.16500 119244.000000
899 13479 1 0.16500 119244.000000
900 11431 1 0.16500 119244.000000
900 11988 1 0.16500 119244.000000
901 11431 1 0.16500 119244.000000
901 15652 1 0.16500 119244.000000
902 11950 1 0.16500 119244.000000
902 12651 1 0.16500 119244.000000
903 12088 1 0.16500 119244.000000
903 12651 1 0.16500 119244.000000
904 11432 1 0.16500 119244.000000
904 12651 1 0.16500 119244.000000
905 12651 1 0.16500 119244.000000
905 14375 1 0.16500 119244.000000
906 11926 1 0.16500 119244.000000
906 14128 1 0.16500 119244.000000
907 11433 1 0.16500 119244.000000
907 15138 1 0.16500 119244.000000
908 11433 1 0.16500 119244.000000
908 14997 1 0.16500 119244.000000
909 11433 1 0.16500 119244.000000
909 14128 1 0.16500 119244.000000
910 11434 1 0.16500 119244.000000
910 15099 1 0.16500 119244.000000
911 11434 1 0.16500 119244.000000
911 11891 1 0.16500 119244.000000
912 11434 1 0.16500 119244.000000
912 15834 1 0.16500 119244.000000
913 11434 1 0.16500 119244.000000
913 15731 1 0.16500 119244.000000
914 11435 1 0.16500 119244.000000
914 15257 1 0.16500 119244.000000
915 11435 1 0.16500 119244.000000
915 13035 1 0.16500 119244.000000
916 11435 1 0.16500 119244.000000
916 15008 1 0.16500 119244.000000
917 11435 1 0.16500 119244.000000
917 14335 1 0.16500 119244.000000
918 11436 1 0.16500 119244.000000
918 11964 1 0.16500 119244.000000
919 11436 1 0.16500 119244.000000
919 15690 1 0.16500 119244.000000
920 11436 1 0.16500 119244.000000
920 16019 1 0.16500 119244.000000
921 11437 1 0.16500 119244.000000
921 14991 1 0.16500 119244.000000
922 11437 1 0.16500 119244.000000
922 13693 1 0.16500 119244.000000
923 11437 1 0.16500 119244.000000
923 12743 1 0.16500 119244.000000
924 11437 1 0.16500 119244.000000
924 11680 1 0.16500 119244.000000
925 11438 1 0.16500 119244.000000
925 11447 1 0.16500 119244.000000
926 11438 1 0.16500 119244.000000
926 13579 1 0.16500 119244.000000
927 11438 1 0.16500 119244.000000
927 11737 1 0.16500 119244.000000
928 11438 1 0.16500 119244.000000
928 15894 1 0.16500 119244.000000
929 11439 1 0.16500 119244.000000
929 15388 1 0.16500 119244.000000
930 11439 1 0.16500 119244.000000
930 14759 1 0.16500 119244.000000
931 11439 1 0.16500 119244.000000
931 13445 1 0.16500 119244.000000
932 11439 1 0.16500 119244.000000
932 15135 1 0.16500 119244.000000
933 11440 1 0.16500 119244.000000
933 13479 1 0.16500 119244.000000
934 11440 1 0.16500 119244.000000
934 15958 1 0.16500 119244.000000
935 11440 1 0.16500 119244.000000
935 13081 1 0.16500 119244.000000
936 11440 1 0.16500 119244.000000
936 14477 1 0.16500 119244.000000
937 11441 1 0.16500 119244.000000
937 24291 1 0.16500 119244.000000
938 11441 1 0.16500 119244.000000
938 15755 1 0.16500 119244.000000
939 11441 1 0.16500 119244.000000
939 12878 1 0.16500 119244.000000
940 11441 1 0.16500 119244.000000
940 21381 1 0.16500 119244.000000
941 11442 1 0.16500 119244.000000
941 11496 1 0.16500 119244.000000
942 11442 1 0.16500 119244.000000
942 15464 1 0.16500 119244.000000
943 11442 1 0.16500 119244.000000
943 17015 1 0.16500 119244.000000
944 11442 1 0.16500 119244.000000
944 14316 1 0.16500 119244.000000
945 11443 1 0.16500 119244.000000
945 15149 1 0.16500 119244.000000
946 11443 1 0.16500 119244.000000
946 11602 1 0.16500 119244.000000
947 11443 1 0.16500 119244.000000
947 16054 1 0.16500 119244.000000
948 11443 1 0.16500 119244.000000
948 16204 1 0.16500 119244.000000
949 11528 1 0.16500 119244.000000
949 14466 1 0.16500 119244.000000
950 11444 1 0.16500 119244.000000
950 12138 1 0.16500 119244.000000
951 11444 1 0.16500 119244.000000
951 14466 1 0.16500 119244.000000
952 11444 1 0.16500 119244.000000
952 13390 1 0.16500 119244.000000
953 11445 1 0.16500 119244.000000
953 11461 1 0.16500 119244.000000
954 11445 1 0.16500 119244.000000
954 13242 1 0.16500 119244.000000
955 11445 1 0.16500 119244.000000
955 12464 1 0.16500 119244.000000
956 11445 1 0.16500 119244.000000
956 15008 1 0.16500 119244.000000
957 11446 1 0.16500 119244.000000
957 11508 1 0.16500 119244.000000
958 11446 1 0.16500 119244.000000
958 12158 1 0.16500 119244.000000
959 11508 1 0.16500 119244.000000
959 13182 1 0.16500 119244.000000
960 12158 1 0.16500 119244.000000
960 12489 1 0.16500 119244.000000
961 11447 1 0.16500 119244.000000
961 15178 1 0.16500 119244.000000
962 11447 1 0.16500 119244.000000
962 14311 1 0.16500 119244.000000
963 11447 1 0.16500 119244.000000
963 14209 1 0.16500 119244.000000
964 15756 1 0.16500 119244.000000
964 18861 1 0.16500 119244.000000
965 13010 1 0.16500 119244.000000
965 18861 1 0.16500 119244.000000
966 11448 1 0.16500 119244.000000
966 12623 1 0.16500 119244.000000
967 11448 1 0.16500 119244.000000
967 13880 1 0.16500 119244.000000
968 11448 1 0.16500 119244.000000
968 14339 1 0.16500 119244.000000
969 11448 1 0.16500 119244.000000
969 15930 1 0.16500 119244.000000
970 11449 1 0.16500 119244.000000
970 15443 1 0.16500 119244.000000
971 11449 1 0.16500 119244.000000
971 11712 1 0.16500 119244.000000
972 11449 1 0.16500 119244.000000
972 12038 1 0.16500 119244.000000
973 11449 1 0.16500 119244.000000
973 11631 1 0.16500 119244.000000
974 11450 1 0.16500 119244.000000
974 14374 1 0.16500 119244.000000
975 11450 1 0.16500 119244.000000
975 13779 1 0.16500 119244.000000
976 11450 1 0.16500 119244.000000
976 15548 1 0.16500 119244.000000
977 11450 1 0.16500 119244.000000
977 14364 1 0.16500 119244.000000
978 18873 1 0.16500 119244.000000
978 24552 1 0.16500 119244.000000
979 14947 1 0.16500 119244.000000
979 18873 1 0.16500 119244.000000
980 18873 1 0.16500 119244.000000
980 21705 1 0.16500 119244.000000
981 11451 1 0.16500 119244.000000
981 14576 1 0.16500 119244.000000
982 11877 1 0.16500 119244.000000
982 14576 1 0.16500 119244.000000
983 11451 1 0.16500 119244.000000
983 12025 1 0.16500 119244.000000
984 11451 1 0.16500 119244.000000
984 11561 1 0.16500 119244.000000
985 11732 1 0.16500 119244.000000
985 24669 1 0.16500 119244.000000
986 11422 1 0.16500 119244.000000
986 20409 1 0.16500 119244.000000
987 11452 1 0.16500 119244.000000
987 12568 1 0.16500 119244.000000
988 11452 1 0.16500 119244.000000
988 15327 1 0.16500 119244.000000
989 11453 1 0.16500 119244.000000
989 16008 1 0.16500 119244.000000
990 11453 1 0.16500 119244.000000
990 16192 1 0.16500 119244.000000
991 11453 1 0.16500 119244.000000
991 14968 1 0.16500 119244.000000
992 11453 1 0.16500 119244.000000
992 11488 1 0.16500 119244.000000
993 11454 1 0.16500 119244.000000
993 13093 1 0.16500 119244.000000
994 11454 1 0.16500 119244.000000
994 16026 1 0.16500 119244.000000
995 11454 1 0.16500 119244.000000
995 11613 1 0.16500 119244.000000
996 11455 1 0.16500 119244.000000
996 16135 1 0.16500 119244.000000
997 11455 1 0.16500 119244.000000
997 15990 1 0.16500 119244.000000
998 11455 1 0.16500 119244.000000
998 15673 1 0.16500 119244.000000
999 11455 1 0.16500 119244.000000
999 12335 1 0.16500 119244.000000
1000 11456 1 0.16500 119244.000000
1000 12962 1 0.16500 119244.000000
1001 11456 1 0.16500 119244.000000
1001 16075 1 0.16500 119244.000000
1002 11456 1 0.16500 119244.000000
1002 15767 1 0.16500 119244.000000
1003 11456 1 0.16500 119244.000000
1003 15010 1 0.16500 119244.000000
1004 11457 1 0.16500 119244.000000
1004 12143 1 0.16500 119244.000000
1005 11457 1 0.16500 119244.000000
1005 11857 1 0.16500 119244.000000
1006 11457 1 0.16500 119244.000000
1006 14561 1 0.16500 119244.000000
1007 11457 1 0.16500 119244.000000
1007 13934 1 0.16500 119244.000000
1008 11458 1 0.16500 119244.000000
1008 11487 1 0.16500 119244.000000
1009 11458 1 0.16500 119244.000000
1009 14955 1 0.16500 119244.000000
1010 14633 1 0.16500 119244.000000
1010 14965 1 0.16500 119244.000000
1011 11458 1 0.16500 119244.000000
1011 14633 1 0.16500 119244.000000
1012 11459 1 0.16500 119244.000000
1012 14311 1 0.16500 119244.000000
1013 11459 1 0.16500 119244.000000
1013 15305 1 0.16500 119244.000000
1014 11459 1 0.16500 119244.000000
1014 15894 1 0.16500 119244.000000
1015 11459 1 0.16500 119244.000000
1015 12357 1 0.16500 119244.000000
1016 11460 1 0.16500 119244.000000
1016 11722 1 0.16500 119244.000000
1017 11460 1 0.16500 119244.000000
1017 15553 1 0.16500 119244.000000
1018 11460 1 0.16500 119244.000000
1018 13739 1 0.16500 119244.000000
1019 11460 1 0.16500 119244.000000
1019 12226 1 0.16500 119244.000000
1020 11461 1 0.16500 119244.000000
1020 22161 1 0.16500 119244.000000
1021 11461 1 0.16500 119244.000000
1021 24165 1 0.16500 119244.000000
1022 11461 1 0.16500 119244.000000
1022 19653 1 0.16500 119244.000000
1023 11462 1 0.16500 119244.000000
1023 15357 1 0.16500 119244.000000
1024 11462 1 0.16500 119244.000000
1024 15738 1 0.16500 119244.000000
1025 11462 1 0.16500 119244.000000
1025 12941 1 0.16500 119244.000000
1026 11462 1 0.16500 119244.000000
1026 15890 1 0.16500 119244.000000
1027 11906 1 0.16500 119244.000000
1027 18885 1 0.16500 119244.000000
1028 12002 1 0.16500 119244.000000
1028 18885 1 0.16500 119244.000000
1029 15139 1 0.16500 119244.000000
1029 18885 1 0.16500 119244.000000
1030 11432 1 0.16500 119244.000000
1030 11463 1 0.16500 119244.000000
1031 11463 1 0.16500 119244.000000
1031 15457 1 0.16500 119244.000000
1032 11463 1 0.16500 119244.000000
1032 14359 1 0.16500 119244.000000
1033 11463 1 0.16500 119244.000000
1033 15013 1 0.16500 119244.000000
1034 17379 1 0.16500 119244.000000
1034 18897 1 0.16500 119244.000000
1035 13871 1 0.16500 119244.000000
1035 18897 1 0.16500 119244.000000
1036 14919 1 0.16500 119244.000000
1036 19257 1 0.16500 119244.000000
1037 14919 1 0.16500 119244.000000
1037 24351 1 0.16500 119244.000000
1038 12852 1 0.16500 119244.000000
1038 14919 1 0.16500 119244.000000
1039 11464 1 0.16500 119244.000000
1039 14919 1 0.16500 119244.000000
1040 11465 1 0.16500 119244.000000
1040 24198 1 0.16500 119244.000000
1041 11465 1 0.16500 119244.000000
1041 14845 1 0.16500 119244.000000
1042 11465 1 0.16500 119244.000000
1042 18909 1 0.16500 119244.000000
1043 18909 1 0.16500 119244.000000
1043 23934 1 0.16500 119244.000000
1044 18909 1 0.16500 119244.000000
1044 19629 1 0.16500 119244.000000
1045 11466 1 0.16500 119244.000000
1045 14936 1 0.16500 119244.000000
1046 11466 1 0.16500 119244.000000
1046 15440 1 0.16500 119244.000000
1047 11466 1 0.16500 119244.000000
1047 11533 1 0.16500 119244.000000
1048 11466 1 0.16500 119244.000000
1048 15004 1 0.16500 119244.000000
1049 11467 1 0.16500 119244.000000
1049 14792 1 0.16500 119244.000000
1050 11467 1 0.16500 119244.000000
1050 15316 1 0.16500 119244.000000
1051 11467 1 0.16500 119244.000000
1051 14330 1 0.16500 119244.000000
1052 11468 1 0.16500 119244.000000
1052 11598 1 0.16500 119244.000000
1053 11468 1 0.16500 119244.000000
1053 15230 1 0.16500 119244.000000
1054 11468 1 0.16500 119244.000000
1054 14949 1 0.16500 119244.000000
1055 11468 1 0.16500 119244.000000
1055 12358 1 0.16500 119244.000000
1056 11469 1 0.16500 119244.000000
1056 11645 1 0.16500 119244.000000
1057 11469 1 0.16500 119244.000000
1057 15561 1 0.16500 119244.000000
1058 11469 1 0.16500 119244.000000
1058 14091 1 0.16500 119244.000000
1059 11469 1 0.16500 119244.000000
1059 14990 1 0.16500 119244.000000
1060 11470 1 0.16500 119244.000000
1060 15364 1 0.16500 119244.000000
1061 11470 1 0.16500 119244.000000
1061 15115 1 0.16500 119244.000000
1062 12667 1 0.16500 119244.000000
1062 15364 1 0.16500 119244.000000
1063 12991 1 0.16500 119244.000000
1063 13198 1 0.16500 119244.000000
1064 11471 1 0.16500 119244.000000
1064 12991 1 0.16500 119244.000000
1065 12991 1 0.16500 119244.000000
1065 14499 1 0.16500 119244.000000
1066 11472 1 0.16500 119244.000000
1066 13461 1 0.16500 119244.000000
1067 11472 1 0.16500 119244.000000
1067 14277 1 0.16500 119244.000000
1068 11472 1 0.16500 119244.000000
1068 14302 1 0.16500 119244.000000
1069 11472 1 0.16500 119244.000000
1069 12159 1 0.16500 119244.000000
1070 11473 1 0.16500 119244.000000
1070 15533 1 0.16500 119244.000000
1071 11473 1 0.16500 119244.000000
1071 16094 1 0.16500 119244.000000
1072 11473 1 0.16500 119244.000000
1072 14688 1 0.16500 119244.000000
1073 11474 1 0.16500 119244.000000
1073 19257 1 0.16500 119244.000000
1074 11474 1 0.16500 119244.000000
1074 16200 1 0.16500 119244.000000
1075 11474 1 0.16500 119244.000000
1075 24129 1 0.16500 119244.000000
1076 11474 1 0.16500 119244.000000
1076 23943 1 0.16500 119244.000000
1077 11475 1 0.16500 119244.000000
1077 13317 1 0.16500 119244.000000
1078 11475 1 0.16500 119244.000000
1078 13595 1 0.16500 119244.000000
1079 11475 1 0.16500 119244.000000
1079 16060 1 0.16500 119244.000000
1080 11475 1 0.16500 119244.000000
1080 14879 1 0.16500 119244.000000
1081 11476 1 0.16500 119244.000000
1081 15391 1 0.16500 119244.000000
1082 11476 1 0.16500 119244.000000
1082 12428 1 0.16500 119244.000000
1083 11476 1 0.16500 119244.000000
1083 16133 1 0.16500 119244.000000
1084 11476 1 0.16500 119244.000000
1084 14180 1 0.16500 119244.000000
1085 11477 1 0.16500 119244.000000
1085 13149 1 0.16500 119244.000000
1086 11477 1 0.16500 119244.000000
1086 12263 1 0.16500 119244.000000
1087 11477 1 0.16500 119244.000000
1087 13789 1 0.16500 119244.000000
1088 11477 1 0.16500 119244.000000
1088 12831 1 0.16500 119244.000000
1089 11478 1 0.16500 119244.000000
1089 13827 1 0.16500 119244.000000
1090 11478 1 0.16500 119244.000000
1090 14431 1 0.16500 119244.000000
1091 11478 1 0.16500 119244.000000
1091 12884 1 0.16500 119244.000000
1092 11478 1 0.16500 119244.000000
1092 15814 1 0.16500 119244.000000
1093 11479 1 0.16500 119244.000000
1093 12861 1 0.16500 119244.000000
1094 11479 1 0.16500 119244.000000
1094 13938 1 0.16500 119244.000000
1095 11479 1 0.16500 119244.000000
1095 15872 1 0.16500 119244.000000
1096 11480 1 0.16500 119244.000000
1096 13955 1 0.16500 119244.000000
1097 11480 1 0.16500 119244.000000
1097 12975 1 0.16500 119244.000000
1098 11480 1 0.16500 119244.000000
1098 14009 1 0.16500 119244.000000
1099 11480 1 0.16500 119244.000000
1099 12503 1 0.16500 119244.000000
1100 11481 1 0.16500 119244.000000
1100 12842 1 0.16500 119244.000000
1101 11481 1 0.16500 119244.000000
1101 12876 1 0.16500 119244.000000
1102 11481 1 0.16500 119244.000000
1102 14791 1 0.16500 119244.000000
1103 11481 1 0.16500 119244.000000
1103 16059 1 0.16500 119244.000000
1104 11482 1 0.16500 119244.000000
1104 15584 1 0.16500 119244.000000
1105 11482 1 0.16500 119244.000000
1105 14564 1 0.16500 119244.000000
1106 11482 1 0.16500 119244.000000
1106 16167 1 0.16500 119244.000000
1107 11483 1 0.16500 119244.000000
1107 11964 1 0.16500 119244.000000
1108 11964 1 0.16500 119244.000000
1108 15998 1 0.16500 119244.000000
1109 11964 1 0.16500 119244.000000
1109 13037 1 0.16500 119244.000000
1110 18921 1 0.16500 119244.000000
1110 22629 1 0.16500 119244.000000
1111 13166 1 0.16500 119244.000000
1111 18921 1 0.16500 119244.000000
1112 18921 1 0.16500 119244.000000
1112 24507 1 0.16500 119244.000000
1113 11484 1 0.16500 119244.000000
1113 15970 1 0.16500 119244.000000
1114 14189 1 0.16500 119244.000000
1114 15970 1 0.16500 119244.000000
1115 11484 1 0.16500 119244.000000
1115 14995 1 0.16500 119244.000000
1116 11484 1 0.16500 119244.000000
1116 11595 1 0.16500 119244.000000
1117 11485 1 0.16500 119244.000000
1117 13492 1 0.16500 119244.000000
1118 11485 1 0.16500 119244.000000
1118 20313 1 0.16500 119244.000000
1119 11485 1 0.16500 119244.000000
1119 15246 1 0.16500 119244.000000
1120 11485 1 0.16500 119244.000000
1120 24519 1 0.16500 119244.000000
1121 11486 1 0.16500 119244.000000
1121 12885 1 0.16500 119244.000000
1122 11486 1 0.16500 119244.000000
1122 15337 1 0.16500 119244.000000
1123 11486 1 0.16500 119244.000000
1123 20289 1 0.16500 119244.000000
1124 11486 1 0.16500 119244.000000
1124 14870 1 0.16500 119244.000000
1125 11487 1 0.16500 119244.000000
1125 15599 1 0.16500 119244.000000
1126 11487 1 0.16500 119244.000000
1126 15152 1 0.16500 119244.000000
1127 11487 1 0.16500 119244.000000
1127 15857 1 0.16500 119244.000000
1128 11488 1 0.16500 119244.000000
1128 11781 1 0.16500 119244.000000
1129 11488 1 0.16500 119244.000000
1129 12640 1 0.16500 119244.000000
1130 11489 1 0.16500 119244.000000
1130 15143 1 0.16500 119244.000000
1131 11350 1 0.16500 119244.000000
1131 14767 1 0.16500 119244.000000
1132 11489 1 0.16500 119244.000000
1132 14811 1 0.16500 119244.000000
1133 11490 1 0.16500 119244.000000
1133 13630 1 0.16500 119244.000000
1134 11490 1 0.16500 119244.000000
1134 12156 1 0.16500 119244.000000
1135 11490 1 0.16500 119244.000000
1135 13676 1 0.16500 119244.000000
1136 11490 1 0.16500 119244.000000
1136 13592 1 0.16500 119244.000000
1137 15450 1 0.16500 119244.000000
1137 23169 1 0.16500 119244.000000
1138 11491 1 0.16500 119244.000000
1138 15016 1 0.16500 119244.000000
1139 11491 1 0.16500 119244.000000
1139 12527 1 0.16500 119244.000000
1140 11491 1 0.16500 119244.000000
1140 15075 1 0.16500 119244.000000
1141 11491 1 0.16500 119244.000000
1141 11649 1 0.16500 119244.000000
1142 11492 1 0.16500 119244.000000
1142 11916 1 0.16500 119244.000000
1143 11492 1 0.16500 119244.000000
1143 11506 1 0.16500 119244.000000
1144 11492 1 0.16500 119244.000000
1144 12974 1 0.16500 119244.000000
1145 11492 1 0.16500 119244.000000
1145 13213 1 0.16500 119244.000000
1146 11493 1 0.16500 119244.000000
1146 16011 1 0.16500 119244.000000
1147 11493 1 0.16500 119244.000000
1147 12624 1 0.16500 119244.000000
1148 11493 1 0.16500 119244.000000
1148 21849 1 0.16500 119244.000000
1149 11493 1 0.16500 119244.000000
1149 15514 1 0.16500 119244.000000
1150 11494 1 0.16500 119244.000000
1150 13291 1 0.16500 119244.000000
1151 13291 1 0.16500 119244.000000
1151 13742 1 0.16500 119244.000000
1152 11494 1 0.16500 119244.000000
1152 12156 1 0.16500 119244.000000
1153 11495 1 0.16500 119244.000000
1153 16118 1 0.16500 119244.000000
1154 11495 1 0.16500 119244.000000
1154 21789 1 0.16500 119244.000000
1155 11495 1 0.16500 119244.000000
1155 14424 1 0.16500 119244.000000
1156 11495 1 0.16500 119244.000000
1156 14648 1 0.16500 119244.000000
1157 11496 1 0.16500 119244.000000
1157 15725 1 0.16500 119244.000000
1158 11496 1 0.16500 119244.000000
1158 11769 1 0.16500 119244.000000
1159 11496 1 0.16500 119244.000000
1159 14533 1 0.16500 119244.000000
1160 12820 1 0.16500 119244.000000
1160 15280 1 0.16500 119244.000000
1161 11497 1 0.16500 119244.000000
1161 11859 1 0.16500 119244.000000
1162 11497 1 0.16500 119244.000000
1162 12820 1 0.16500 119244.000000
1163 12820 1 0.16500 119244.000000
1163 13127 1 0.16500 119244.000000
1164 11498 1 0.16500 119244.000000
1164 13981 1 0.16500 119244.000000
1165 11498 1 0.16500 119244.000000
1165 15917 1 0.16500 119244.000000
1166 11498 1 0.16500 119244.000000
1166 13319 1 0.16500 119244.000000
1167 11498 1 0.16500 119244.000000
1167 13671 1 0.16500 119244.000000
1168 11499 1 0.16500 119244.000000
1168 16017 1 0.16500 119244.000000
1169 11499 1 0.16500 119244.000000
1169 14711 1 0.16500 119244.000000
1170 11499 1 0.16500 119244.000000
1170 20457 1 0.16500 119244.000000
1171 11499 1 0.16500 119244.000000
1171 22593 1 0.16500 119244.000000
1172 11500 1 0.16500 119244.000000
1172 13632 1 0.16500 119244.000000
1173 11500 1 0.16500 119244.000000
1173 14582 1 0.16500 119244.000000
1174 11500 1 0.16500 119244.000000
1174 12597 1 0.16500 119244.000000
1175 11500 1 0.16500 119244.000000
1175 13827 1 0.16500 119244.000000
1176 11501 1 0.16500 119244.000000
1176 15525 1 0.16500 119244.000000
1177 11501 1 0.16500 119244.000000
1177 14042 1 0.16500 119244.000000
1178 11501 1 0.16500 119244.000000
1178 15540 1 0.16500 119244.000000
1179 15649 1 0.16500 119244.000000
1179 18933 1 0.16500 119244.000000
1180 17981 1 0.16500 119244.000000
1180 18933 1 0.16500 119244.000000
1181 11502 1 0.16500 119244.000000
1181 14858 1 0.16500 119244.000000
1182 11502 1 0.16500 119244.000000
1182 14043 1 0.16500 119244.000000
1183 11502 1 0.16500 119244.000000
1183 15643 1 0.16500 119244.000000
1184 11502 1 0.16500 119244.000000
1184 15073 1 0.16500 119244.000000
1185 11503 1 0.16500 119244.000000
1185 13513 1 0.16500 119244.000000
1186 11503 1 0.16500 119244.000000
1186 11904 1 0.16500 119244.000000
1187 11503 1 0.16500 119244.000000
1187 11606 1 0.16500 119244.000000
1188 11503 1 0.16500 119244.000000
1188 15992 1 0.16500 119244.000000
1189 11504 1 0.16500 119244.000000
1189 12796 1 0.16500 119244.000000
1190 11504 1 0.16500 119244.000000
1190 15909 1 0.16500 119244.000000
1191 11504 1 0.16500 119244.000000
1191 14246 1 0.16500 119244.000000
1192 12796 1 0.16500 119244.000000
1192 14069 1 0.16500 119244.000000
1193 11505 1 0.16500 119244.000000
1193 13693 1 0.16500 119244.000000
1194 11505 1 0.16500 119244.000000
1194 13531 1 0.16500 119244.000000
1195 11505 1 0.16500 119244.000000
1195 11730 1 0.16500 119244.000000
1196 11505 1 0.16500 119244.000000
1196 12603 1 0.16500 119244.000000
1197 11276 1 0.16500 119244.000000
1197 11506 1 0.16500 119244.000000
1198 11506 1 0.16500 119244.000000
1198 15711 1 0.16500 119244.000000
1199 13292 1 0.16500 119244.000000
1199 14485 1 0.16500 119244.000000
1200 11507 1 0.16500 119244.000000
1200 14004 1 0.16500 119244.000000
1201 11507 1 0.16500 119244.000000
1201 13292 1 0.16500 119244.000000
1202 11507 1 0.16500 119244.000000
1202 14513 1 0.16500 119244.000000
1203 11446 1 0.16500 119244.000000
1203 12344 1 0.16500 119244.000000
1204 11508 1 0.16500 119244.000000
1204 12574 1 0.16500 119244.000000
1205 11508 1 0.16500 119244.000000
1205 12558 1 0.16500 119244.000000
1206 11917 1 0.16500 119244.000000
1206 18945 1 0.16500 119244.000000
1207 17435 1 0.16500 119244.000000
1207 18945 1 0.16500 119244.000000
1208 11509 1 0.16500 119244.000000
1208 14677 1 0.16500 119244.000000
1209 11509 1 0.16500 119244.000000
1209 13551 1 0.16500 119244.000000
1210 11509 1 0.16500 119244.000000
1210 13243 1 0.16500 119244.000000
1211 11510 1 0.16500 119244.000000
1211 13675 1 0.16500 119244.000000
1212 11290 1 0.16500 119244.000000
1212 11510 1 0.16500 119244.000000
1213 11510 1 0.16500 119244.000000
1213 14977 1 0.16500 119244.000000
1214 11510 1 0.16500 119244.000000
1214 12264 1 0.16500 119244.000000
1215 11511 1 0.16500 119244.000000
1215 15881 1 0.16500 119244.000000
1216 11511 1 0.16500 119244.000000
1216 19857 1 0.16500 119244.000000
1217 11511 1 0.16500 119244.000000
1217 14468 1 0.16500 119244.000000
1218 11511 1 0.16500 119244.000000
1218 11557 1 0.16500 119244.000000
1219 11512 1 0.16500 119244.000000
1219 14149 1 0.16500 119244.000000
1220 11430 1 0.16500 119244.000000
1220 15272 1 0.16500 119244.000000
1221 11512 1 0.16500 119244.000000
1221 15597 1 0.16500 119244.000000
1222 18957 1 0.16500 119244.000000
1222 24327 1 0.16500 119244.000000
1223 12288 1 0.16500 119244.000000
1223 18957 1 0.16500 119244.000000
1224 18957 1 0.16500 119244.000000
1224 24525 1 0.16500 119244.000000
1225 11513 1 0.16500 119244.000000
1225 11534 1 0.16500 119244.000000
1226 11513 1 0.16500 119244.000000
1226 14811 1 0.16500 119244.000000
1227 11513 1 0.16500 119244.000000
1227 15893 1 0.16500 119244.000000
1228 11513 1 0.16500 119244.000000
1228 12814 1 0.16500 119244.000000
1229 11514 1 0.16500 119244.000000
1229 13563 1 0.16500 119244.000000
1230 11514 1 0.16500 119244.000000
1230 15863 1 0.16500 119244.000000
1231 11514 1 0.16500 119244.000000
1231 24729 1 0.16500 119244.000000
1232 11514 1 0.16500 119244.000000
1232 12886 1 0.16500 119244.000000
1233 11515 1 0.16500 119244.000000
1233 14518 1 0.16500 119244.000000
1234 11515 1 0.16500 119244.000000
1234 14963 1 0.16500 119244.000000
1235 11515 1 0.16500 119244.000000
1235 12964 1 0.16500 119244.000000
1236 11515 1 0.16500 119244.000000
1236 14422 1 0.16500 119244.000000
1237 18969 1 0.16500 119244.000000
1237 23931 1 0.16500 119244.000000
1238 15286 1 0.16500 119244.000000
1238 18969 1 0.16500 119244.000000
1239 13366 1 0.16500 119244.000000
1239 18969 1 0.16500 119244.000000
1240 11516 1 0.16500 119244.000000
1240 14260 1 0.16500 119244.000000
1241 11516 1 0.16500 119244.000000
1241 13238 1 0.16500 119244.000000
1242 11516 1 0.16500 119244.000000
1242 12586 1 0.16500 119244.000000
1243 11517 1 0.16500 119244.000000
1243 14765 1 0.16500 119244.000000
1244 11517 1 0.16500 119244.000000
1244 15315 1 0.16500 119244.000000
1245 11517 1 0.16500 119244.000000
1245 15665 1 0.16500 119244.000000
1246 11518 1 0.16500 119244.000000
1246 13617 1 0.16500 119244.000000
1247 11518 1 0.16500 119244.000000
1247 11667 1 0.16500 119244.000000
1248 11518 1 0.16500 119244.000000
1248 14911 1 0.16500 119244.000000
1249 11518 1 0.16500 119244.000000
1249 13819 1 0.16500 119244.000000
1250 11519 1 0.16500 119244.000000
1250 15265 1 0.16500 119244.000000
1251 11519 1 0.16500 119244.000000
1251 12676 1 0.16500 119244.000000
1252 11519 1 0.16500 119244.000000
1252 12258 1 0.16500 119244.000000
1253 11519 1 0.16500 119244.000000
1253 13980 1 0.16500 119244.000000
1254 11520 1 0.16500 119244.000000
1254 13939 1 0.16500 119244.000000
1255 11520 1 0.16500 119244.000000
1255 13749 1 0.16500 119244.000000
1256 11520 1 0.16500 119244.000000
1256 11567 1 0.16500 119244.000000
1257 11520 1 0.16500 119244.000000
1257 15827 1 0.16500 119244.000000
1258 12578 1 0.16500 119244.000000
1258 19317 1 0.16500 119244.000000
1259 11521 1 0.16500 119244.000000
1259 18233 1 0.16500 119244.000000
1260 11521 1 0.16500 119244.000000
1260 24501 1 0.16500 119244.000000
1261 11521 1 0.16500 119244.000000
1261 12955 1 0.16500 119244.000000
1262 11521 1 0.16500 119244.000000
1262 16095 1 0.16500 119244.000000
1263 11522 1 0.16500 119244.000000
1263 16149 1 0.16500 119244.000000
1264 11522 1 0.16500 119244.000000
1264 15190 1 0.16500 119244.000000
1265 11522 1 0.16500 119244.000000
1265 12151 1 0.16500 119244.000000
1266 11523 1 0.16500 119244.000000
1266 13361 1 0.16500 119244.000000
1267 11523 1 0.16500 119244.000000
1267 15035 1 0.16500 119244.000000
1268 11523 1 0.16500 119244.000000
1268 13475 1 0.16500 119244.000000
1269 11523 1 0.16500 119244.000000
1269 23409 1 0.16500 119244.000000
1270 11524 1 0.16500 119244.000000
1270 14230 1 0.16500 119244.000000
1271 11524 1 0.16500 119244.000000
1271 16203 1 0.16500 119244.000000
1272 11524 1 0.16500 119244.000000
1272 13649 1 0.16500 119244.000000
1273 11524 1 0.16500 119244.000000
1273 12229 1 0.16500 119244.000000
1274 11525 1 0.16500 119244.000000
1274 15935 1 0.16500 119244.000000
1275 11525 1 0.16500 119244.000000
1275 12905 1 0.16500 119244.000000
1276 11525 1 0.16500 119244.000000
1276 13489 1 0.16500 119244.000000
1277 11525 1 0.16500 119244.000000
1277 12903 1 0.16500 119244.000000
1278 11526 1 0.16500 119244.000000
1278 12258 1 0.16500 119244.000000
1279 11526 1 0.16500 119244.000000
1279 11977 1 0.16500 119244.000000
1280 11526 1 0.16500 119244.000000
1280 13896 1 0.16500 119244.000000
1281 11526 1 0.16500 119244.000000
1281 15268 1 0.16500 119244.000000
1282 11527 1 0.16500 119244.000000
1282 14495 1 0.16500 119244.000000
1283 11527 1 0.16500 119244.000000
1283 14621 1 0.16500 119244.000000
1284 12060 1 0.16500 119244.000000
1284 16045 1 0.16500 119244.000000
1285 11527 1 0.16500 119244.000000
1285 16045 1 0.16500 119244.000000
1286 14577 1 0.16500 119244.000000
1286 18981 1 0.16500 119244.000000
1287 14577 1 0.16500 119244.000000
1287 16082 1 0.16500 119244.000000
1288 18981 1 0.16500 119244.000000
1288 21297 1 0.16500 119244.000000
1289 11528 1 0.16500 119244.000000
1289 13085 1 0.16500 119244.000000
1290 11528 1 0.16500 119244.000000
1290 14525 1 0.16500 119244.000000
1291 11528 1 0.16500 119244.000000
1291 22569 1 0.16500 119244.000000
1292 11529 1 0.16500 119244.000000
1292 15290 1 0.16500 119244.000000
1293 11529 1 0.16500 119244.000000
1293 15664 1 0.16500 119244.000000
1294 11529 1 0.16500 119244.000000
1294 15520 1 0.16500 119244.000000
1295 11529 1 0.16500 119244.000000
1295 16050 1 0.16500 119244.000000
1296 11530 1 0.16500 119244.000000
1296 15191 1 0.16500 119244.000000
1297 11530 1 0.16500 119244.000000
1297 14742 1 0.16500 119244.000000
1298 11530 1 0.16500 119244.000000
1298 11846 1 0.16500 119244.000000
1299 11531 1 0.16500 119244.000000
1299 11637 1 0.16500 119244.000000
1300 11531 1 0.16500 119244.000000
1300 15629 1 0.16500 119244.000000
1301 11531 1 0.16500 119244.000000
1301 12026 1 0.16500 119244.000000
1302 11531 1 0.16500 119244.000000
1302 12486 1 0.16500 119244.000000
1303 11532 1 0.16500 119244.000000
1303 14844 1 0.16500 119244.000000
1304 14004 1 0.16500 119244.000000
1304 15686 1 0.16500 119244.000000
1305 11532 1 0.16500 119244.000000
1305 14004 1 0.16500 119244.000000
1306 11532 1 0.16500 119244.000000
1306 15586 1 0.16500 119244.000000
1307 11533 1 0.16500 119244.000000
1307 14355 1 0.16500 119244.000000
1308 11533 1 0.16500 119244.000000
1308 11586 1 0.16500 119244.000000
1309 11533 1 0.16500 119244.000000
1309 12588 1 0.16500 119244.000000
1310 11534 1 0.16500 119244.000000
1310 15729 1 0.16500 119244.000000
1311 11534 1 0.16500 119244.000000
1311 14121 1 0.16500 119244.000000
1312 11464 1 0.16500 119244.000000
1312 11534 1 0.16500 119244.000000
1313 11535 1 0.16500 119244.000000
1313 11847 1 0.16500 119244.000000
1314 11535 1 0.16500 119244.000000
1314 15970 1 0.16500 119244.000000
1315 11535 1 0.16500 119244.000000
1315 13112 1 0.16500 119244.000000
1316 11535 1 0.16500 119244.000000
1316 11972 1 0.16500 119244.000000
1317 11536 1 0.16500 119244.000000
1317 12606 1 0.16500 119244.000000
1318 11536 1 0.16500 119244.000000
1318 14279 1 0.16500 119244.000000
1319 11536 1 0.16500 119244.000000
1319 15893 1 0.16500 119244.000000
1320 11536 1 0.16500 119244.000000
1320 14121 1 0.16500 119244.000000
1321 11537 1 0.16500 119244.000000
1321 14230 1 0.16500 119244.000000
1322 11537 1 0.16500 119244.000000
1322 14247 1 0.16500 119244.000000
1323 11537 1 0.16500 119244.000000
1323 15723 1 0.16500 119244.000000
1324 11537 1 0.16500 119244.000000
1324 11817 1 0.16500 119244.000000
1325 11538 1 0.16500 119244.000000
1325 19773 1 0.16500 119244.000000
1326 11538 1 0.16500 119244.000000
1326 14437 1 0.16500 119244.000000
1327 11538 1 0.16500 119244.000000
1327 18219 1 0.16500 119244.000000
1328 11538 1 0.16500 119244.000000
1328 14026 1 0.16500 119244.000000
1329 18993 1 0.16500 119244.000000
1329 21597 1 0.16500 119244.000000
1330 21597 1 0.16500 119244.000000
1330 24012 1 0.16500 119244.000000
1331 12252 1 0.16500 119244.000000
1331 18993 1 0.16500 119244.000000
1332 11539 1 0.16500 119244.000000
1332 15118 1 0.16500 119244.000000
1333 11539 1 0.16500 119244.000000
1333 14855 1 0.16500 119244.000000
1334 11539 1 0.16500 119244.000000
1334 14074 1 0.16500 119244.000000
1335 11539 1 0.16500 119244.000000
1335 13475 1 0.16500 119244.000000
1336 11540 1 0.16500 119244.000000
1336 13761 1 0.16500 119244.000000
1337 11540 1 0.16500 119244.000000
1337 15186 1 0.16500 119244.000000
1338 11540 1 0.16500 119244.000000
1338 12339 1 0.16500 119244.000000
1339 11540 1 0.16500 119244.000000
1339 13971 1 0.16500 119244.000000
1340 11541 1 0.16500 119244.000000
1340 15460 1 0.16500 119244.000000
1341 11541 1 0.16500 119244.000000
1341 13376 1 0.16500 119244.000000
1342 11541 1 0.16500 119244.000000
1342 15723 1 0.16500 119244.000000
1343 11701 1 0.16500 119244.000000
1343 19005 1 0.16500 119244.000000
1344 11621 1 0.16500 119244.000000
1344 19005 1 0.16500 119244.000000
1345 11542 1 0.16500 119244.000000
1345 12220 1 0.16500 119244.000000
1346 11542 1 0.16500 119244.000000
1346 11728 1 0.16500 119244.000000
1347 11542 1 0.16500 119244.000000
1347 14015 1 0.16500 119244.000000
1348 11542 1 0.16500 119244.000000
1348 15937 1 0.16500 119244.000000
1349 13271 1 0.16500 119244.000000
1349 15339 1 0.16500 119244.000000
1350 13271 1 0.16500 119244.000000
1350 15061 1 0.16500 119244.000000
1351 11543 1 0.16500 119244.000000
1351 13271 1 0.16500 119244.000000
1352 14956 1 0.16500 119244.000000
1352 15061 1 0.16500 119244.000000
1353 11544 1 0.16500 119244.000000
1353 13837 1 0.16500 119244.000000
1354 14809 1 0.16500 119244.000000
1354 14900 1 0.16500 119244.000000
1355 11544 1 0.16500 119244.000000
1355 15916 1 0.16500 119244.000000
1356 11544 1 0.16500 119244.000000
1356 14809 1 0.16500 119244.000000
1357 12012 1 0.16500 119244.000000
1357 15527 1 0.16500 119244.000000
1358 11545 1 0.16500 119244.000000
1358 15060 1 0.16500 119244.000000
1359 12012 1 0.16500 119244.000000
1359 14158 1 0.16500 119244.000000
1360 11545 1 0.16500 119244.000000
1360 12012 1 0.16500 119244.000000
1361 11546 1 0.16500 119244.000000
1361 15958 1 0.16500 119244.000000
1362 11546 1 0.16500 119244.000000
1362 15513 1 0.16500 119244.000000
1363 11546 1 0.16500 119244.000000
1363 13526 1 0.16500 119244.000000
1364 11546 1 0.16500 119244.000000
1364 11679 1 0.16500 119244.000000
1365 11547 1 0.16500 119244.000000
1365 13760 1 0.16500 119244.000000
1366 11547 1 0.16500 119244.000000
1366 11981 1 0.16500 119244.000000
1367 11547 1 0.16500 119244.000000
1367 14678 1 0.16500 119244.000000
1368 11547 1 0.16500 119244.000000
1368 13410 1 0.16500 119244.000000
1369 11548 1 0.16500 119244.000000
1369 21969 1 0.16500 119244.000000
1370 11548 1 0.16500 119244.000000
1370 23949 1 0.16500 119244.000000
1371 11548 1 0.16500 119244.000000
1371 13813 1 0.16500 119244.000000
1372 11548 1 0.16500 119244.000000
1372 19437 1 0.16500 119244.000000
1373 11549 1 0.16500 119244.000000
1373 11951 1 0.16500 119244.000000
1374 11549 1 0.16500 119244.000000
1374 13381 1 0.16500 119244.000000
1375 11549 1 0.16500 119244.000000
1375 14985 1 0.16500 119244.000000
1376 11550 1 0.16500 119244.000000
1376 12617 1 0.16500 119244.000000
1377 11550 1 0.16500 119244.000000
1377 15280 1 0.16500 119244.000000
1378 11550 1 0.16500 119244.000000
1378 14070 1 0.16500 119244.000000
1379 11550 1 0.16500 119244.000000
1379 12256 1 0.16500 119244.000000
1380 14326 1 0.16500 119244.000000
1380 19017 1 0.16500 119244.000000
1381 19017 1 0.16500 119244.000000
1381 19581 1 0.16500 119244.000000
1382 18149 1 0.16500 119244.000000
1382 19017 1 0.16500 119244.000000
1383 11551 1 0.16500 119244.000000
1383 14674 1 0.16500 119244.000000
1384 11551 1 0.16500 119244.000000
1384 15860 1 0.16500 119244.000000
1385 11551 1 0.16500 119244.000000
1385 15250 1 0.16500 119244.000000
1386 11551 1 0.16500 119244.000000
1386 14457 1 0.16500 119244.000000
1387 19029 1 0.16500 119244.000000
1387 21549 1 0.16500 119244.000000
1388 14373 1 0.16500 119244.000000
1388 19029 1 0.16500 119244.000000
1389 15409 1 0.16500 119244.000000
1389 19029 1 0.16500 119244.000000
1390 11552 1 0.16500 119244.000000
1390 14795 1 0.16500 119244.000000
1391 11552 1 0.16500 119244.000000
1391 13111 1 0.16500 119244.000000
1392 11552 1 0.16500 119244.000000
1392 13007 1 0.16500 119244.000000
1393 11552 1 0.16500 119244.000000
1393 12405 1 0.16500 119244.000000
1394 11553 1 0.16500 119244.000000
1394 14899 1 0.16500 119244.000000
1395 11553 1 0.16500 119244.000000
1395 13353 1 0.16500 119244.000000
1396 11553 1 0.16500 119244.000000
1396 12138 1 0.16500 119244.000000
1397 11553 1 0.16500 119244.000000
1397 14525 1 0.16500 119244.000000
1398 11554 1 0.16500 119244.000000
1398 13867 1 0.16500 119244.000000
1399 11554 1 0.16500 119244.000000
1399 12725 1 0.16500 119244.000000
1400 11554 1 0.16500 119244.000000
1400 14176 1 0.16500 119244.000000
1401 11554 1 0.16500 119244.000000
1401 13401 1 0.16500 119244.000000
1402 11555 1 0.16500 119244.000000
1402 14692 1 0.16500 119244.000000
1403 13776 1 0.16500 119244.000000
1403 15683 1 0.16500 119244.000000
1404 11555 1 0.16500 119244.000000
1404 13383 1 0.16500 119244.000000
1405 11555 1 0.16500 119244.000000
1405 13776 1 0.16500 119244.000000
1406 12048 1 0.16500 119244.000000
1406 19041 1 0.16500 119244.000000
1407 19041 1 0.16500 119244.000000
1407 24516 1 0.16500 119244.000000
1408 15079 1 0.16500 119244.000000
1408 19041 1 0.16500 119244.000000
1409 12029 1 0.16500 119244.000000
1409 14766 1 0.16500 119244.000000
1410 11556 1 0.16500 119244.000000
1410 14766 1 0.16500 119244.000000
1411 11556 1 0.16500 119244.000000
1411 15354 1 0.16500 119244.000000
1412 11556 1 0.16500 119244.000000
1412 14896 1 0.16500 119244.000000
1413 14343 1 0.16500 119244.000000
1413 19053 1 0.16500 119244.000000
1414 19053 1 0.16500 119244.000000
1414 21477 1 0.16500 119244.000000
1415 11557 1 0.16500 119244.000000
1415 15963 1 0.16500 119244.000000
1416 11557 1 0.16500 119244.000000
1416 11674 1 0.16500 119244.000000
1417 11557 1 0.16500 119244.000000
1417 14426 1 0.16500 119244.000000
1418 11558 1 0.16500 119244.000000
1418 15021 1 0.16500 119244.000000
1419 11558 1 0.16500 119244.000000
1419 15565 1 0.16500 119244.000000
1420 11558 1 0.16500 119244.000000
1420 12942 1 0.16500 119244.000000
1421 11558 1 0.16500 119244.000000
1421 12961 1 0.16500 119244.000000
1422 11559 1 0.16500 119244.000000
1422 13386 1 0.16500 119244.000000
1423 11559 1 0.16500 119244.000000
1423 12209 1 0.16500 119244.000000
1424 11559 1 0.16500 119244.000000
1424 12461 1 0.16500 119244.000000
1425 11559 1 0.16500 119244.000000
1425 15189 1 0.16500 119244.000000
1426 11560 1 0.16500 119244.000000
1426 12688 1 0.16500 119244.000000
1427 11560 1 0.16500 119244.000000
1427 12680 1 0.16500 119244.000000
1428 11560 1 0.16500 119244.000000
1428 16170 1 0.16500 119244.000000
1429 11560 1 0.16500 119244.000000
1429 14258 1 0.16500 119244.000000
1430 11561 1 0.16500 119244.000000
1430 14829 1 0.16500 119244.000000
1431 11561 1 0.16500 119244.000000
1431 13832 1 0.16500 119244.000000
1432 11561 1 0.16500 119244.000000
1432 14840 1 0.16500 119244.000000
1433 11562 1 0.16500 119244.000000
1433 12999 1 0.16500 119244.000000
1434 11562 1 0.16500 119244.000000
1434 11854 1 0.16500 119244.000000
1435 11562 1 0.16500 119244.000000
1435 14954 1 0.16500 119244.000000
1436 11563 1 0.16500 119244.000000
1436 15499 1 0.16500 119244.000000
1437 11563 1 0.16500 119244.000000
1437 13444 1 0.16500 119244.000000
1438 11563 1 0.16500 119244.000000
1438 15312 1 0.16500 119244.000000
1439 11563 1 0.16500 119244.000000
1439 12072 1 0.16500 119244.000000
1440 11564 1 0.16500 119244.000000
1440 13630 1 0.16500 119244.000000
1441 11564 1 0.16500 119244.000000
1441 14679 1 0.16500 119244.000000
1442 11564 1 0.16500 119244.000000
1442 15927 1 0.16500 119244.000000
1443 15520 1 0.16500 119244.000000
1443 19065 1 0.16500 119244.000000
1444 19065 1 0.16500 119244.000000
1444 24453 1 0.16500 119244.000000
1445 11565 1 0.16500 119244.000000
1445 14075 1 0.16500 119244.000000
1446 11565 1 0.16500 119244.000000
1446 15959 1 0.16500 119244.000000
1447 11565 1 0.16500 119244.000000
1447 16207 1 0.16500 119244.000000
1448 11565 1 0.16500 119244.000000
1448 12699 1 0.16500 119244.000000
1449 16051 1 0.16500 119244.000000
1449 19077 1 0.16500 119244.000000
1450 16497 1 0.16500 119244.000000
1450 19077 1 0.16500 119244.000000
1451 11566 1 0.16500 119244.000000
1451 12475 1 0.16500 119244.000000
1452 11566 1 0.16500 119244.000000
1452 15509 1 0.16500 119244.000000
1453 11566 1 0.16500 119244.000000
1453 14268 1 0.16500 119244.000000
1454 14154 1 0.16500 119244.000000
1454 19089 1 0.16500 119244.000000
1455 16609 1 0.16500 119244.000000
1455 19089 1 0.16500 119244.000000
1456 15186 1 0.16500 119244.000000
1456 19089 1 0.16500 119244.000000
1457 11567 1 0.16500 119244.000000
1457 13518 1 0.16500 119244.000000
1458 11567 1 0.16500 119244.000000
1458 16020 1 0.16500 119244.000000
1459 11567 1 0.16500 119244.000000
1459 15937 1 0.16500 119244.000000
1460 12306 1 0.16500 119244.000000
1460 14897 1 0.16500 119244.000000
1461 11568 1 0.16500 119244.000000
1461 14647 1 0.16500 119244.000000
1462 11568 1 0.16500 119244.000000
1462 15505 1 0.16500 119244.000000
1463 13628 1 0.16500 119244.000000
1463 14779 1 0.16500 119244.000000
1464 11569 1 0.16500 119244.000000
1464 14346 1 0.16500 119244.000000
1465 11569 1 0.16500 119244.000000
1465 13994 1 0.16500 119244.000000
1466 11569 1 0.16500 119244.000000
1466 14028 1 0.16500 119244.000000
1467 11569 1 0.16500 119244.000000
1467 14783 1 0.16500 119244.000000
1468 11931 1 0.16500 119244.000000
1468 15725 1 0.16500 119244.000000
1469 12260 1 0.16500 119244.000000
1469 13898 1 0.16500 119244.000000
1470 11931 1 0.16500 119244.000000
1470 19101 1 0.16500 119244.000000
1471 12260 1 0.16500 119244.000000
1471 19101 1 0.16500 119244.000000
1472 11570 1 0.16500 119244.000000
1472 12072 1 0.16500 119244.000000
1473 11570 1 0.16500 119244.000000
1473 13112 1 0.16500 119244.000000
1474 11570 1 0.16500 119244.000000
1474 12426 1 0.16500 119244.000000
1475 11570 1 0.16500 119244.000000
1475 12901 1 0.16500 119244.000000
1476 19113 1 0.16500 119244.000000
1476 22677 1 0.16500 119244.000000
1477 14126 1 0.16500 119244.000000
1477 19113 1 0.16500 119244.000000
1478 11571 1 0.16500 119244.000000
1478 14695 1 0.16500 119244.000000
1479 11571 1 0.16500 119244.000000
1479 15541 1 0.16500 119244.000000
1480 11571 1 0.16500 119244.000000
1480 14931 1 0.16500 119244.000000
1481 11571 1 0.16500 119244.000000
1481 17841 1 0.16500 119244.000000
1482 11572 1 0.16500 119244.000000
1482 13942 1 0.16500 119244.000000
1483 11572 1 0.16500 119244.000000
1483 15143 1 0.16500 119244.000000
1484 11572 1 0.16500 119244.000000
1484 11973 1 0.16500 119244.000000
1485 11572 1 0.16500 119244.000000
1485 15529 1 0.16500 119244.000000
1486 11573 1 0.16500 119244.000000
1486 13897 1 0.16500 119244.000000
1487 11573 1 0.16500 119244.000000
1487 15122 1 0.16500 119244.000000
1488 11573 1 0.16500 119244.000000
1488 15639 1 0.16500 119244.000000
1489 11573 1 0.16500 119244.000000
1489 14683 1 0.16500 119244.000000
1490 11574 1 0.16500 119244.000000
1490 13267 1 0.16500 119244.000000
1491 11574 1 0.16500 119244.000000
1491 13560 1 0.16500 119244.000000
1492 11574 1 0.16500 119244.000000
1492 12017 1 0.16500 119244.000000
1493 11574 1 0.16500 119244.000000
1493 14561 1 0.16500 119244.000000
1494 11575 1 0.16500 119244.000000
1494 11901 1 0.16500 119244.000000
1495 11575 1 0.16500 119244.000000
1495 16567 1 0.16500 119244.000000
1496 11575 1 0.16500 119244.000000
1496 12731 1 0.16500 119244.000000
1497 11575 1 0.16500 119244.000000
1497 12581 1 0.16500 119244.000000
1498 11576 1 0.16500 119244.000000
1498 15431 1 0.16500 119244.000000
1499 12114 1 0.16500 119244.000000
1499 13409 1 0.16500 119244.000000
1500 11576 1 0.16500 119244.000000
1500 12114 1 0.16500 119244.000000
1501 11576 1 0.16500 119244.000000
1501 11759 1 0.16500 119244.000000
1502 11577 1 0.16500 119244.000000
1502 12044 1 0.16500 119244.000000
1503 11577 1 0.16500 119244.000000
1503 12667 1 0.16500 119244.000000
1504 11577 1 0.16500 119244.000000
1504 14631 1 0.16500 119244.000000
1505 11577 1 0.16500 119244.000000
1505 14084 1 0.16500 119244.000000
1506 11578 1 0.16500 119244.000000
1506 13852 1 0.16500 119244.000000
1507 11578 1 0.16500 119244.000000
1507 13454 1 0.16500 119244.000000
1508 11578 1 0.16500 119244.000000
1508 14638 1 0.16500 119244.000000
1509 11578 1 0.16500 119244.000000
1509 15745 1 0.16500 119244.000000
1510 11579 1 0.16500 119244.000000
1510 13492 1 0.16500 119244.000000
1511 11579 1 0.16500 119244.000000
1511 14200 1 0.16500 119244.000000
1512 11579 1 0.16500 119244.000000
1512 15114 1 0.16500 119244.000000
1513 11579 1 0.16500 119244.000000
1513 15066 1 0.16500 119244.000000
1514 11580 1 0.16500 119244.000000
1514 12692 1 0.16500 119244.000000
1515 11580 1 0.16500 119244.000000
1515 14830 1 0.16500 119244.000000
1516 11580 1 0.16500 119244.000000
1516 14507 1 0.16500 119244.000000
1517 11580 1 0.16500 119244.000000
1517 14487 1 0.16500 119244.000000
1518 11581 1 0.16500 119244.000000
1518 13998 1 0.16500 119244.000000
1519 11581 1 0.16500 119244.000000
1519 14053 1 0.16500 119244.000000
1520 11581 1 0.16500 119244.000000
1520 11880 1 0.16500 119244.000000
1521 11581 1 0.16500 119244.000000
1521 15727 1 0.16500 119244.000000
1522 11582 1 0.16500 119244.000000
1522 14111 1 0.16500 119244.000000
1523 11582 1 0.16500 119244.000000
1523 14304 1 0.16500 119244.000000
1524 11582 1 0.16500 119244.000000
1524 13592 1 0.16500 119244.000000
1525 11582 1 0.16500 119244.000000
1525 15052 1 0.16500 119244.000000
1526 11583 1 0.16500 119244.000000
1526 21405 1 0.16500 119244.000000
1527 11583 1 0.16500 119244.000000
1527 14302 1 0.16500 119244.000000
1528 11583 1 0.16500 119244.000000
1528 15604 1 0.16500 119244.000000
1529 11583 1 0.16500 119244.000000
1529 13555 1 0.16500 119244.000000
1530 11584 1 0.16500 119244.000000
1530 15172 1 0.16500 119244.000000
1531 11584 1 0.16500 119244.000000
1531 15864 1 0.16500 119244.000000
1532 11584 1 0.16500 119244.000000
1532 14183 1 0.16500 119244.000000
1533 11584 1 0.16500 119244.000000
1533 13654 1 0.16500 119244.000000
1534 11585 1 0.16500 119244.000000
1534 14375 1 0.16500 119244.000000
1535 11585 1 0.16500 119244.000000
1535 14591 1 0.16500 119244.000000
1536 11585 1 0.16500 119244.000000
1536 14636 1 0.16500 119244.000000
1537 11585 1 0.16500 119244.000000
1537 15100 1 0.16500 119244.000000
1538 11586 1 0.16500 119244.000000
1538 15993 1 0.16500 119244.000000
1539 11586 1 0.16500 119244.000000
1539 12725 1 0.16500 119244.000000
1540 11586 1 0.16500 119244.000000
1540 14274 1 0.16500 119244.000000
1541 13249 1 0.16500 119244.000000
1541 19125 1 0.16500 119244.000000
1542 14329 1 0.16500 119244.000000
1542 19125 1 0.16500 119244.000000
1543 11587 1 0.16500 119244.000000
1543 16043 1 0.16500 119244.000000
1544 11587 1 0.16500 119244.000000
1544 12308 1 0.16500 119244.000000
1545 11587 1 0.16500 119244.000000
1545 13808 1 0.16500 119244.000000
1546 11587 1 0.16500 119244.000000
1546 13448 1 0.16500 119244.000000
1547 11588 1 0.16500 119244.000000
1547 12214 1 0.16500 119244.000000
1548 11588 1 0.16500 119244.000000
1548 11776 1 0.16500 119244.000000
1549 11588 1 0.16500 119244.000000
1549 14787 1 0.16500 119244.000000
1550 11588 1 0.16500 119244.000000
1550 13426 1 0.16500 119244.000000
1551 11589 1 0.16500 119244.000000
1551 14710 1 0.16500 119244.000000
1552 11589 1 0.16500 119244.000000
1552 13483 1 0.16500 119244.000000
1553 11589 1 0.16500 119244.000000
1553 15050 1 0.16500 119244.000000
1554 11589 1 0.16500 119244.000000
1554 14422 1 0.16500 119244.000000
1555 11590 1 0.16500 119244.000000
1555 12119 1 0.16500 119244.000000
1556 11590 1 0.16500 119244.000000
1556 13730 1 0.16500 119244.000000
1557 11590 1 0.16500 119244.000000
1557 14289 1 0.16500 119244.000000
1558 11590 1 0.16500 119244.000000
1558 14485 1 0.16500 119244.000000
1559 11591 1 0.16500 119244.000000
1559 14861 1 0.16500 119244.000000
1560 11591 1 0.16500 119244.000000
1560 14761 1 0.16500 119244.000000
1561 11591 1 0.16500 119244.000000
1561 15185 1 0.16500 119244.000000
1562 11591 1 0.16500 119244.000000
1562 15939 1 0.16500 119244.000000
1563 11592 1 0.16500 119244.000000
1563 23613 1 0.16500 119244.000000
1564 11592 1 0.16500 119244.000000
1564 13757 1 0.16500 119244.000000
1565 11592 1 0.16500 119244.000000
1565 12083 1 0.16500 119244.000000
1566 11592 1 0.16500 119244.000000
1566 19509 1 0.16500 119244.000000
1567 11593 1 0.16500 119244.000000
1567 11650 1 0.16500 119244.000000
1568 12217 1 0.16500 119244.000000
1568 15766 1 0.16500 119244.000000
1569 11593 1 0.16500 119244.000000
1569 12217 1 0.16500 119244.000000
1570 11593 1 0.16500 119244.000000
1570 13459 1 0.16500 119244.000000
1571 11594 1 0.16500 119244.000000
1571 12071 1 0.16500 119244.000000
1572 11594 1 0.16500 119244.000000
1572 15588 1 0.16500 119244.000000
1573 11594 1 0.16500 119244.000000
1573 15379 1 0.16500 119244.000000
1574 11594 1 0.16500 119244.000000
1574 12049 1 0.16500 119244.000000
1575 11595 1 0.16500 119244.000000
1575 15528 1 0.16500 119244.000000
1576 11808 1 0.16500 119244.000000
1576 15528 1 0.16500 119244.000000
1577 11595 1 0.16500 119244.000000
1577 15827 1 0.16500 119244.000000
1578 11595 1 0.16500 119244.000000
1578 14393 1 0.16500 119244.000000
1579 11596 1 0.16500 119244.000000
1579 13295 1 0.16500 119244.000000
1580 11596 1 0.16500 119244.000000
1580 14511 1 0.16500 119244.000000
1581 11596 1 0.16500 119244.000000
1581 12783 1 0.16500 119244.000000
1582 11596 1 0.16500 119244.000000
1582 14241 1 0.16500 119244.000000
1583 11597 1 0.16500 119244.000000
1583 11948 1 0.16500 119244.000000
1584 11597 1 0.16500 119244.000000
1584 12823 1 0.16500 119244.000000
1585 11597 1 0.16500 119244.000000
1585 13364 1 0.16500 119244.000000
1586 11598 1 0.16500 119244.000000
1586 12263 1 0.16500 119244.000000
1587 11598 1 0.16500 119244.000000
1587 16107 1 0.16500 119244.000000
1588 12181 1 0.16500 119244.000000
1588 16107 1 0.16500 119244.000000
1589 11599 1 0.16500 119244.000000
1589 15303 1 0.16500 119244.000000
1590 11599 1 0.16500 119244.000000
1590 13471 1 0.16500 119244.000000
1591 11599 1 0.16500 119244.000000
1591 15161 1 0.16500 119244.000000
1592 11599 1 0.16500 119244.000000
1592 15259 1 0.16500 119244.000000
1593 11600 1 0.16500 119244.000000
1593 15464 1 0.16500 119244.000000
1594 11600 1 0.16500 119244.000000
1594 12984 1 0.16500 119244.000000
1595 11600 1 0.16500 119244.000000
1595 14641 1 0.16500 119244.000000
1596 11601 1 0.16500 119244.000000
1596 16016 1 0.16500 119244.000000
1597 11347 1 0.16500 119244.000000
1597 11601 1 0.16500 119244.000000
1598 11601 1 0.16500 119244.000000
1598 15094 1 0.16500 119244.000000
1599 11602 1 0.16500 119244.000000
1599 13836 1 0.16500 119244.000000
1600 11602 1 0.16500 119244.000000
1600 13593 1 0.16500 119244.000000
1601 11602 1 0.16500 119244.000000
1601 11641 1 0.16500 119244.000000
1602 11603 1 0.16500 119244.000000
1602 12008 1 0.16500 119244.000000
1603 11603 1 0.16500 119244.000000
1603 13036 1 0.16500 119244.000000
1604 11603 1 0.16500 119244.000000
1604 13516 1 0.16500 119244.000000
1605 11604 1 0.16500 119244.000000
1605 12965 1 0.16500 119244.000000
1606 11604 1 0.16500 119244.000000
1606 13937 1 0.16500 119244.000000
1607 11604 1 0.16500 119244.000000
1607 14197 1 0.16500 119244.000000
1608 11604 1 0.16500 119244.000000
1608 12186 1 0.16500 119244.000000
1609 11605 1 0.16500 119244.000000
1609 13458 1 0.16500 119244.000000
1610 11605 1 0.16500 119244.000000
1610 13955 1 0.16500 119244.000000
1611 11605 1 0.16500 119244.000000
1611 12682 1 0.16500 119244.000000
1612 13458 1 0.16500 119244.000000
1612 15346 1 0.16500 119244.000000
1613 11606 1 0.16500 119244.000000
1613 12620 1 0.16500 119244.000000
1614 11606 1 0.16500 119244.000000
1614 15714 1 0.16500 119244.000000
1615 11606 1 0.16500 119244.000000
1615 15798 1 0.16500 119244.000000
1616 11607 1 0.16500 119244.000000
1616 12441 1 0.16500 119244.000000
1617 11607 1 0.16500 119244.000000
1617 12631 1 0.16500 119244.000000
1618 11607 1 0.16500 119244.000000
1618 13609 1 0.16500 119244.000000
1619 11618 1 0.16500 119244.000000
1619 13456 1 0.16500 119244.000000
1620 11608 1 0.16500 119244.000000
1620 13456 1 0.16500 119244.000000
1621 11608 1 0.16500 119244.000000
1621 14072 1 0.16500 119244.000000
1622 11608 1 0.16500 119244.000000
1622 14438 1 0.16500 119244.000000
1623 19137 1 0.16500 119244.000000
1623 24471 1 0.16500 119244.000000
1624 12808 1 0.16500 119244.000000
1624 19137 1 0.16500 119244.000000
1625 11735 1 0.16500 119244.000000
1625 19137 1 0.16500 119244.000000
1626 11609 1 0.16500 119244.000000
1626 13690 1 0.16500 119244.000000
1627 11609 1 0.16500 119244.000000
1627 12171 1 0.16500 119244.000000
1628 11609 1 0.16500 119244.000000
1628 13448 1 0.16500 119244.000000
1629 11609 1 0.16500 119244.000000
1629 14380 1 0.16500 119244.000000
1630 11610 1 0.16500 119244.000000
1630 15454 1 0.16500 119244.000000
1631 11610 1 0.16500 119244.000000
1631 15901 1 0.16500 119244.000000
1632 11610 1 0.16500 119244.000000
1632 15535 1 0.16500 119244.000000
1633 13073 1 0.16500 119244.000000
1633 15901 1 0.16500 119244.000000
1634 19149 1 0.16500 119244.000000
1634 24102 1 0.16500 119244.000000
1635 19149 1 0.16500 119244.000000
1635 24174 1 0.16500 119244.000000
1636 13364 1 0.16500 119244.000000
1636 19149 1 0.16500 119244.000000
1637 11611 1 0.16500 119244.000000
1637 15640 1 0.16500 119244.000000
1638 11611 1 0.16500 119244.000000
1638 14631 1 0.16500 119244.000000
1639 11611 1 0.16500 119244.000000
1639 13864 1 0.16500 119244.000000
1640 11611 1 0.16500 119244.000000
1640 14904 1 0.16500 119244.000000
1641 11612 1 0.16500 119244.000000
1641 13293 1 0.16500 119244.000000
1642 11612 1 0.16500 119244.000000
1642 12514 1 0.16500 119244.000000
1643 11612 1 0.16500 119244.000000
1643 21285 1 0.16500 119244.000000
1644 19161 1 0.16500 119244.000000
1644 24486 1 0.16500 119244.000000
1645 19161 1 0.16500 119244.000000
1645 24285 1 0.16500 119244.000000
1646 14350 1 0.16500 119244.000000
1646 19161 1 0.16500 119244.000000
1647 11483 1 0.16500 119244.000000
1647 14100 1 0.16500 119244.000000
1648 12102 1 0.16500 119244.000000
1648 13085 1 0.16500 119244.000000
1649 11483 1 0.16500 119244.000000
1649 12102 1 0.16500 119244.000000
1650 12982 1 0.16500 119244.000000
1650 19173 1 0.16500 119244.000000
1651 15994 1 0.16500 119244.000000
1651 19173 1 0.16500 119244.000000
1652 19185 1 0.16500 119244.000000
1652 19197 1 0.16500 119244.000000
1653 12547 1 0.16500 119244.000000
1653 19185 1 0.16500 119244.000000
1654 11756 1 0.16500 119244.000000
1654 19185 1 0.16500 119244.000000
1655 12968 1 0.16500 119244.000000
1655 19197 1 0.16500 119244.000000
1656 11614 1 0.16500 119244.000000
1656 16028 1 0.16500 119244.000000
1657 11614 1 0.16500 119244.000000
1657 13173 1 0.16500 119244.000000
1658 11614 1 0.16500 119244.000000
1658 14263 1 0.16500 119244.000000
1659 11614 1 0.16500 119244.000000
1659 12182 1 0.16500 119244.000000
1660 11615 1 0.16500 119244.000000
1660 12526 1 0.16500 119244.000000
1661 11615 1 0.16500 119244.000000
1661 16200 1 0.16500 119244.000000
1662 11615 1 0.16500 119244.000000
1662 15214 1 0.16500 119244.000000
1663 11615 1 0.16500 119244.000000
1663 13488 1 0.16500 119244.000000
1664 11616 1 0.16500 119244.000000
1664 12983 1 0.16500 119244.000000
1665 11616 1 0.16500 119244.000000
1665 12448 1 0.16500 119244.000000
1666 11616 1 0.16500 119244.000000
1666 12597 1 0.16500 119244.000000
1667 11616 1 0.16500 119244.000000
1667 15288 1 0.16500 119244.000000
1668 11617 1 0.16500 119244.000000
1668 14935 1 0.16500 119244.000000
1669 11617 1 0.16500 119244.000000
1669 15256 1 0.16500 119244.000000
1670 11617 1 0.16500 119244.000000
1670 16177 1 0.16500 119244.000000
1671 11617 1 0.16500 119244.000000
1671 12028 1 0.16500 119244.000000
1672 11618 1 0.16500 119244.000000
1672 13380 1 0.16500 119244.000000
1673 11618 1 0.16500 119244.000000
1673 13547 1 0.16500 119244.000000
1674 11619 1 0.16500 119244.000000
1674 15438 1 0.16500 119244.000000
1675 11619 1 0.16500 119244.000000
1675 13786 1 0.16500 119244.000000
1676 11619 1 0.16500 119244.000000
1676 14633 1 0.16500 119244.000000
1677 11619 1 0.16500 119244.000000
1677 12664 1 0.16500 119244.000000
1678 11620 1 0.16500 119244.000000
1678 15273 1 0.16500 119244.000000
1679 11620 1 0.16500 119244.000000
1679 12446 1 0.16500 119244.000000
1680 11620 1 0.16500 119244.000000
1680 14191 1 0.16500 119244.000000
1681 11621 1 0.16500 119244.000000
1681 14423 1 0.16500 119244.000000
1682 11621 1 0.16500 119244.000000
1682 14160 1 0.16500 119244.000000
1683 11621 1 0.16500 119244.000000
1683 16595 1 0.16500 119244.000000
1684 22569 1 0.16500 119244.000000
1684 24644 1 0.16500 119244.000000
1685 19209 1 0.16500 119244.000000
1685 21837 1 0.16500 119244.000000
1686 13715 1 0.16500 119244.000000
1686 17169 1 0.16500 119244.000000
1687 13715 1 0.16500 119244.000000
1687 19221 1 0.16500 119244.000000
1688 13152 1 0.16500 119244.000000
1688 19221 1 0.16500 119244.000000
1689 19233 1 0.16500 119244.000000
1689 20421 1 0.16500 119244.000000
1690 14555 1 0.16500 119244.000000
1690 19233 1 0.16500 119244.000000
1691 14708 1 0.16500 119244.000000
1691 19233 1 0.16500 119244.000000
1692 11622 1 0.16500 119244.000000
1692 13608 1 0.16500 119244.000000
1693 11622 1 0.16500 119244.000000
1693 13077 1 0.16500 119244.000000
1694 11622 1 0.16500 119244.000000
1694 15319 1 0.16500 119244.000000
1695 11622 1 0.16500 119244.000000
1695 13987 1 0.16500 119244.000000
1696 12250 1 0.16500 119244.000000
1696 15904 1 0.16500 119244.000000
1697 11623 1 0.16500 119244.000000
1697 12250 1 0.16500 119244.000000
1698 11623 1 0.16500 119244.000000
1698 11749 1 0.16500 119244.000000
1699 11623 1 0.16500 119244.000000
1699 20529 1 0.16500 119244.000000
1700 11624 1 0.16500 119244.000000
1700 15657 1 0.16500 119244.000000
1701 11624 1 0.16500 119244.000000
1701 23205 1 0.16500 119244.000000
1702 11624 1 0.16500 119244.000000
1702 13368 1 0.16500 119244.000000
1703 11624 1 0.16500 119244.000000
1703 21645 1 0.16500 119244.000000
1704 11625 1 0.16500 119244.000000
1704 14770 1 0.16500 119244.000000
1705 11625 1 0.16500 119244.000000
1705 12788 1 0.16500 119244.000000
1706 11625 1 0.16500 119244.000000
1706 16009 1 0.16500 119244.000000
1707 11625 1 0.16500 119244.000000
1707 14329 1 0.16500 119244.000000
1708 11626 1 0.16500 119244.000000
1708 12238 1 0.16500 119244.000000
1709 11626 1 0.16500 119244.000000
1709 14783 1 0.16500 119244.000000
1710 11626 1 0.16500 119244.000000
1710 14712 1 0.16500 119244.000000
1711 11627 1 0.16500 119244.000000
1711 15005 1 0.16500 119244.000000
1712 14788 1 0.16500 119244.000000
1712 15005 1 0.16500 119244.000000
1713 11627 1 0.16500 119244.000000
1713 15368 1 0.16500 119244.000000
1714 11627 1 0.16500 119244.000000
1714 14362 1 0.16500 119244.000000
1715 11628 1 0.16500 119244.000000
1715 24168 1 0.16500 119244.000000
1716 11628 1 0.16500 119244.000000
1716 12972 1 0.16500 119244.000000
1717 11628 1 0.16500 119244.000000
1717 16553 1 0.16500 119244.000000
1718 12873 1 0.16500 119244.000000
1718 19245 1 0.16500 119244.000000
1719 11629 1 0.16500 119244.000000
1719 14375 1 0.16500 119244.000000
1720 12643 1 0.16500 119244.000000
1720 15819 1 0.16500 119244.000000
1721 12643 1 0.16500 119244.000000
1721 15735 1 0.16500 119244.000000
1722 11629 1 0.16500 119244.000000
1722 12643 1 0.16500 119244.000000
1723 11630 1 0.16500 119244.000000
1723 13142 1 0.16500 119244.000000
1724 11630 1 0.16500 119244.000000
1724 15232 1 0.16500 119244.000000
1725 11630 1 0.16500 119244.000000
1725 15239 1 0.16500 119244.000000
1726 11630 1 0.16500 119244.000000
1726 16002 1 0.16500 119244.000000
1727 19257 1 0.16500 119244.000000
1727 24405 1 0.16500 119244.000000
1728 11631 1 0.16500 119244.000000
1728 15656 1 0.16500 119244.000000
1729 11631 1 0.16500 119244.000000
1729 13996 1 0.16500 119244.000000
1730 11631 1 0.16500 119244.000000
1730 11966 1 0.16500 119244.000000
1731 11632 1 0.16500 119244.000000
1731 14728 1 0.16500 119244.000000
1732 11632 1 0.16500 119244.000000
1732 15594 1 0.16500 119244.000000
1733 11632 1 0.16500 119244.000000
1733 13045 1 0.16500 119244.000000
1734 11632 1 0.16500 119244.000000
1734 12942 1 0.16500 119244.000000
1735 14517 1 0.16500 119244.000000
1735 19269 1 0.16500 119244.000000
1736 19269 1 0.16500 119244.000000
1736 24249 1 0.16500 119244.000000
1737 13747 1 0.16500 119244.000000
1737 19269 1 0.16500 119244.000000
1738 11633 1 0.16500 119244.000000
1738 15459 1 0.16500 119244.000000
1739 11633 1 0.16500 119244.000000
1739 16179 1 0.16500 119244.000000
1740 13989 1 0.16500 119244.000000
1740 15459 1 0.16500 119244.000000
1741 12206 1 0.16500 119244.000000
1741 16179 1 0.16500 119244.000000
1742 16959 1 0.16500 119244.000000
1742 19281 1 0.16500 119244.000000
1743 11634 1 0.16500 119244.000000
1743 12095 1 0.16500 119244.000000
1744 11634 1 0.16500 119244.000000
1744 12125 1 0.16500 119244.000000
1745 11634 1 0.16500 119244.000000
1745 14383 1 0.16500 119244.000000
1746 11634 1 0.16500 119244.000000
1746 15219 1 0.16500 119244.000000
1747 11635 1 0.16500 119244.000000
1747 12745 1 0.16500 119244.000000
1748 11635 1 0.16500 119244.000000
1748 15082 1 0.16500 119244.000000
1749 11382 1 0.16500 119244.000000
1749 14705 1 0.16500 119244.000000
1750 15888 1 0.16500 119244.000000
1750 21033 1 0.16500 119244.000000
1751 19293 1 0.16500 119244.000000
1751 24513 1 0.16500 119244.000000
1752 13722 1 0.16500 119244.000000
1752 19293 1 0.16500 119244.000000
1753 13969 1 0.16500 119244.000000
1753 19293 1 0.16500 119244.000000
1754 11636 1 0.16500 119244.000000
1754 15393 1 0.16500 119244.000000
1755 11636 1 0.16500 119244.000000
1755 24159 1 0.16500 119244.000000
1756 11636 1 0.16500 119244.000000
1756 23955 1 0.16500 119244.000000
1757 11636 1 0.16500 119244.000000
1757 12909 1 0.16500 119244.000000
1758 15836 1 0.16500 119244.000000
1758 19305 1 0.16500 119244.000000
1759 13969 1 0.16500 119244.000000
1759 19305 1 0.16500 119244.000000
1760 15406 1 0.16500 119244.000000
1760 19305 1 0.16500 119244.000000
1761 11637 1 0.16500 119244.000000
1761 12780 1 0.16500 119244.000000
1762 11637 1 0.16500 119244.000000
1762 15218 1 0.16500 119244.000000
1763 11637 1 0.16500 119244.000000
1763 11910 1 0.16500 119244.000000
1764 11638 1 0.16500 119244.000000
1764 12028 1 0.16500 119244.000000
1765 11638 1 0.16500 119244.000000
1765 13509 1 0.16500 119244.000000
1766 11638 1 0.16500 119244.000000
1766 12121 1 0.16500 119244.000000
1767 11638 1 0.16500 119244.000000
1767 12187 1 0.16500 119244.000000
1768 11639 1 0.16500 119244.000000
1768 13945 1 0.16500 119244.000000
1769 11639 1 0.16500 119244.000000
1769 12610 1 0.16500 119244.000000
1770 11639 1 0.16500 119244.000000
1770 12551 1 0.16500 119244.000000
1771 11639 1 0.16500 119244.000000
1771 13836 1 0.16500 119244.000000
1772 11640 1 0.16500 119244.000000
1772 17155 1 0.16500 119244.000000
1773 11640 1 0.16500 119244.000000
1773 12230 1 0.16500 119244.000000
1774 11640 1 0.16500 119244.000000
1774 23373 1 0.16500 119244.000000
1775 11640 1 0.16500 119244.000000
1775 14090 1 0.16500 119244.000000
1776 16198 1 0.16500 119244.000000
1776 19317 1 0.16500 119244.000000
1777 12497 1 0.16500 119244.000000
1777 19317 1 0.16500 119244.000000
1778 11641 1 0.16500 119244.000000
1778 14250 1 0.16500 119244.000000
1779 11641 1 0.16500 119244.000000
1779 12657 1 0.16500 119244.000000
1780 11641 1 0.16500 119244.000000
1780 15936 1 0.16500 119244.000000
1781 11642 1 0.16500 119244.000000
1781 24426 1 0.16500 119244.000000
1782 11642 1 0.16500 119244.000000
1782 12574 1 0.16500 119244.000000
1783 11642 1 0.16500 119244.000000
1783 13600 1 0.16500 119244.000000
1784 11642 1 0.16500 119244.000000
1784 15655 1 0.16500 119244.000000
1785 11643 1 0.16500 119244.000000
1785 13753 1 0.16500 119244.000000
1786 11643 1 0.16500 119244.000000
1786 14742 1 0.16500 119244.000000
1787 11643 1 0.16500 119244.000000
1787 14586 1 0.16500 119244.000000
1788 11644 1 0.16500 119244.000000
1788 14646 1 0.16500 119244.000000
1789 11644 1 0.16500 119244.000000
1789 14217 1 0.16500 119244.000000
1790 11644 1 0.16500 119244.000000
1790 14429 1 0.16500 119244.000000
1791 11644 1 0.16500 119244.000000
1791 12656 1 0.16500 119244.000000
1792 11645 1 0.16500 119244.000000
1792 12605 1 0.16500 119244.000000
1793 11645 1 0.16500 119244.000000
1793 12698 1 0.16500 119244.000000
1794 11645 1 0.16500 119244.000000
1794 13726 1 0.16500 119244.000000
1795 11646 1 0.16500 119244.000000
1795 13330 1 0.16500 119244.000000
1796 11646 1 0.16500 119244.000000
1796 14589 1 0.16500 119244.000000
1797 11646 1 0.16500 119244.000000
1797 15856 1 0.16500 119244.000000
1798 11646 1 0.16500 119244.000000
1798 13865 1 0.16500 119244.000000
1799 11647 1 0.16500 119244.000000
1799 13788 1 0.16500 119244.000000
1800 11647 1 0.16500 119244.000000
1800 13028 1 0.16500 119244.000000
1801 11647 1 0.16500 119244.000000
1801 12410 1 0.16500 119244.000000
1802 11647 1 0.16500 119244.000000
1802 12131 1 0.16500 119244.000000
1803 11648 1 0.16500 119244.000000
1803 11903 1 0.16500 119244.000000
1804 11648 1 0.16500 119244.000000
1804 14247 1 0.16500 119244.000000
1805 11648 1 0.16500 119244.000000
1805 16203 1 0.16500 119244.000000
1806 11648 1 0.16500 119244.000000
1806 14340 1 0.16500 119244.000000
1807 14714 1 0.16500 119244.000000
1807 19329 1 0.16500 119244.000000
1808 13020 1 0.16500 119244.000000
1808 19329 1 0.16500 119244.000000
1809 11649 1 0.16500 119244.000000
1809 12265 1 0.16500 119244.000000
1810 11649 1 0.16500 119244.000000
1810 11924 1 0.16500 119244.000000
1811 11649 1 0.16500 119244.000000
1811 13210 1 0.16500 119244.000000
1812 11650 1 0.16500 119244.000000
1812 13418 1 0.16500 119244.000000
1813 11650 1 0.16500 119244.000000
1813 11711 1 0.16500 119244.000000
1814 11650 1 0.16500 119244.000000
1814 13879 1 0.16500 119244.000000
1815 11651 1 0.16500 119244.000000
1815 12441 1 0.16500 119244.000000
1816 11651 1 0.16500 119244.000000
1816 12709 1 0.16500 119244.000000
1817 11651 1 0.16500 119244.000000
1817 13965 1 0.16500 119244.000000
1818 11651 1 0.16500 119244.000000
1818 15988 1 0.16500 119244.000000
1819 11652 1 0.16500 119244.000000
1819 11884 1 0.16500 119244.000000
1820 11652 1 0.16500 119244.000000
1820 12805 1 0.16500 119244.000000
1821 11652 1 0.16500 119244.000000
1821 15174 1 0.16500 119244.000000
1822 11653 1 0.16500 119244.000000
1822 13159 1 0.16500 119244.000000
1823 11653 1 0.16500 119244.000000
1823 14465 1 0.16500 119244.000000
1824 11653 1 0.16500 119244.000000
1824 16207 1 0.16500 119244.000000
1825 11654 1 0.16500 119244.000000
1825 15034 1 0.16500 119244.000000
1826 11654 1 0.16500 119244.000000
1826 15558 1 0.16500 119244.000000
1827 11654 1 0.16500 119244.000000
1827 13719 1 0.16500 119244.000000
1828 11654 1 0.16500 119244.000000
1828 15507 1 0.16500 119244.000000
1829 13140 1 0.16500 119244.000000
1829 19341 1 0.16500 119244.000000
1830 19341 1 0.16500 119244.000000
1830 22833 1 0.16500 119244.000000
1831 13686 1 0.16500 119244.000000
1831 19341 1 0.16500 119244.000000
1832 11655 1 0.16500 119244.000000
1832 13857 1 0.16500 119244.000000
1833 11655 1 0.16500 119244.000000
1833 12352 1 0.16500 119244.000000
1834 11655 1 0.16500 119244.000000
1834 14975 1 0.16500 119244.000000
1835 11655 1 0.16500 119244.000000
1835 15189 1 0.16500 119244.000000
1836 11656 1 0.16500 119244.000000
1836 13440 1 0.16500 119244.000000
1837 11656 1 0.16500 119244.000000
1837 12706 1 0.16500 119244.000000
1838 11656 1 0.16500 119244.000000
1838 15346 1 0.16500 119244.000000
1839 11657 1 0.16500 119244.000000
1839 14155 1 0.16500 119244.000000
1840 11657 1 0.16500 119244.000000
1840 13047 1 0.16500 119244.000000
1841 11657 1 0.16500 119244.000000
1841 12227 1 0.16500 119244.000000
1842 11657 1 0.16500 119244.000000
1842 14169 1 0.16500 119244.000000
1843 11658 1 0.16500 119244.000000
1843 15882 1 0.16500 119244.000000
1844 11658 1 0.16500 119244.000000
1844 15502 1 0.16500 119244.000000
1845 11658 1 0.16500 119244.000000
1845 12135 1 0.16500 119244.000000
1846 11658 1 0.16500 119244.000000
1846 15035 1 0.16500 119244.000000
1847 11659 1 0.16500 119244.000000
1847 12407 1 0.16500 119244.000000
1848 11659 1 0.16500 119244.000000
1848 12301 1 0.16500 119244.000000
1849 11659 1 0.16500 119244.000000
1849 12511 1 0.16500 119244.000000
1850 11659 1 0.16500 119244.000000
1850 13906 1 0.16500 119244.000000
1851 11660 1 0.16500 119244.000000
1851 14164 1 0.16500 119244.000000
1852 11660 1 0.16500 119244.000000
1852 12759 1 0.16500 119244.000000
1853 11660 1 0.16500 119244.000000
1853 15722 1 0.16500 119244.000000
1854 11660 1 0.16500 119244.000000
1854 11721 1 0.16500 119244.000000
1855 11661 1 0.16500 119244.000000
1855 14560 1 0.16500 119244.000000
1856 11661 1 0.16500 119244.000000
1856 14981 1 0.16500 119244.000000
1857 11661 1 0.16500 119244.000000
1857 15272 1 0.16500 119244.000000
1858 18441 1 0.16500 119244.000000
1858 22605 1 0.16500 119244.000000
1859 11662 1 0.16500 119244.000000
1859 14903 1 0.16500 119244.000000
1860 11662 1 0.16500 119244.000000
1860 15063 1 0.16500 119244.000000
1861 11662 1 0.16500 119244.000000
1861 12349 1 0.16500 119244.000000
1862 11662 1 0.16500 119244.000000
1862 12792 1 0.16500 119244.000000
1863 12672 1 0.16500 119244.000000
1863 19353 1 0.16500 119244.000000
1864 19353 1 0.16500 119244.000000
1864 21225 1 0.16500 119244.000000
1865 14622 1 0.16500 119244.000000
1865 19353 1 0.16500 119244.000000
1866 16154 1 0.16500 119244.000000
1866 19365 1 0.16500 119244.000000
1867 15197 1 0.16500 119244.000000
1867 19365 1 0.16500 119244.000000
1868 11663 1 0.16500 119244.000000
1868 13954 1 0.16500 119244.000000
1869 11663 1 0.16500 119244.000000
1869 16150 1 0.16500 119244.000000
1870 11663 1 0.16500 119244.000000
1870 15500 1 0.16500 119244.000000
1871 11663 1 0.16500 119244.000000
1871 15710 1 0.16500 119244.000000
1872 11664 1 0.16500 119244.000000
1872 12977 1 0.16500 119244.000000
1873 11664 1 0.16500 119244.000000
1873 11698 1 0.16500 119244.000000
1874 11664 1 0.16500 119244.000000
1874 13496 1 0.16500 119244.000000
1875 11664 1 0.16500 119244.000000
1875 15940 1 0.16500 119244.000000
1876 15482 1 0.16500 119244.000000
1876 19377 1 0.16500 119244.000000
1877 19377 1 0.16500 119244.000000
1877 24279 1 0.16500 119244.000000
1878 16178 1 0.16500 119244.000000
1878 19377 1 0.16500 119244.000000
1879 11665 1 0.16500 119244.000000
1879 13907 1 0.16500 119244.000000
1880 11665 1 0.16500 119244.000000
1880 15678 1 0.16500 119244.000000
1881 11665 1 0.16500 119244.000000
1881 12806 1 0.16500 119244.000000
1882 11665 1 0.16500 119244.000000
1882 12273 1 0.16500 119244.000000
1883 11666 1 0.16500 119244.000000
1883 13802 1 0.16500 119244.000000
1884 11666 1 0.16500 119244.000000
1884 12782 1 0.16500 119244.000000
1885 11666 1 0.16500 119244.000000
1885 13833 1 0.16500 119244.000000
1886 11667 1 0.16500 119244.000000
1886 12097 1 0.16500 119244.000000
1887 11667 1 0.16500 119244.000000
1887 14325 1 0.16500 119244.000000
1888 11667 1 0.16500 119244.000000
1888 13106 1 0.16500 119244.000000
1889 19389 1 0.16500 119244.000000
1889 23757 1 0.16500 119244.000000
1890 16060 1 0.16500 119244.000000
1890 19389 1 0.16500 119244.000000
1891 12888 1 0.16500 119244.000000
1891 19389 1 0.16500 119244.000000
1892 11668 1 0.16500 119244.000000
1892 13730 1 0.16500 119244.000000
1893 11668 1 0.16500 119244.000000
1893 14608 1 0.16500 119244.000000
1894 13730 1 0.16500 119244.000000
1894 15325 1 0.16500 119244.000000
1895 11668 1 0.16500 119244.000000
1895 15341 1 0.16500 119244.000000
1896 16455 1 0.16500 119244.000000
1896 19401 1 0.16500 119244.000000
1897 16082 1 0.16500 119244.000000
1897 19401 1 0.16500 119244.000000
1898 11669 1 0.16500 119244.000000
1898 11836 1 0.16500 119244.000000
1899 11669 1 0.16500 119244.000000
1899 14282 1 0.16500 119244.000000
1900 11669 1 0.16500 119244.000000
1900 14187 1 0.16500 119244.000000
1901 11669 1 0.16500 119244.000000
1901 15870 1 0.16500 119244.000000
1902 14122 1 0.16500 119244.000000
1902 16196 1 0.16500 119244.000000
1903 11670 1 0.16500 119244.000000
1903 12716 1 0.16500 119244.000000
1904 15167 1 0.16500 119244.000000
1904 15521 1 0.16500 119244.000000
1905 11670 1 0.16500 119244.000000
1905 14122 1 0.16500 119244.000000
1906 11671 1 0.16500 119244.000000
1906 15025 1 0.16500 119244.000000
1907 11671 1 0.16500 119244.000000
1907 14229 1 0.16500 119244.000000
1908 11671 1 0.16500 119244.000000
1908 15738 1 0.16500 119244.000000
1909 11671 1 0.16500 119244.000000
1909 11986 1 0.16500 119244.000000
1910 11672 1 0.16500 119244.000000
1910 12763 1 0.16500 119244.000000
1911 11672 1 0.16500 119244.000000
1911 13822 1 0.16500 119244.000000
1912 13822 1 0.16500 119244.000000
1912 14590 1 0.16500 119244.000000
1913 11672 1 0.16500 119244.000000
1913 13485 1 0.16500 119244.000000
1914 11673 1 0.16500 119244.000000
1914 15935 1 0.16500 119244.000000
1915 11673 1 0.16500 119244.000000
1915 15763 1 0.16500 119244.000000
1916 11673 1 0.16500 119244.000000
1916 12904 1 0.16500 119244.000000
1917 11673 1 0.16500 119244.000000
1917 11970 1 0.16500 119244.000000
1918 11674 1 0.16500 119244.000000
1918 14695 1 0.16500 119244.000000
1919 11674 1 0.16500 119244.000000
1919 13236 1 0.16500 119244.000000
1920 11675 1 0.16500 119244.000000
1920 15960 1 0.16500 119244.000000
1921 11675 1 0.16500 119244.000000
1921 24150 1 0.16500 119244.000000
1922 11675 1 0.16500 119244.000000
1922 24564 1 0.16500 119244.000000
1923 11675 1 0.16500 119244.000000
1923 13173 1 0.16500 119244.000000
1924 14997 1 0.16500 119244.000000
1924 15772 1 0.16500 119244.000000
1925 11676 1 0.16500 119244.000000
1925 14997 1 0.16500 119244.000000
1926 11676 1 0.16500 119244.000000
1926 23967 1 0.16500 119244.000000
1927 14443 1 0.16500 119244.000000
1927 23967 1 0.16500 119244.000000
1928 12719 1 0.16500 119244.000000
1928 15946 1 0.16500 119244.000000
1929 11677 1 0.16500 119244.000000
1929 20397 1 0.16500 119244.000000
1930 11784 1 0.16500 119244.000000
1930 15706 1 0.16500 119244.000000
1931 11677 1 0.16500 119244.000000
1931 12719 1 0.16500 119244.000000
1932 11678 1 0.16500 119244.000000
1932 15718 1 0.16500 119244.000000
1933 11678 1 0.16500 119244.000000
1933 15754 1 0.16500 119244.000000
1934 11678 1 0.16500 119244.000000
1934 14544 1 0.16500 119244.000000
1935 11678 1 0.16500 119244.000000
1935 14652 1 0.16500 119244.000000
1936 11679 1 0.16500 119244.000000
1936 13718 1 0.16500 119244.000000
1937 11679 1 0.16500 119244.000000
1937 11920 1 0.16500 119244.000000
1938 11679 1 0.16500 119244.000000
1938 13286 1 0.16500 119244.000000
1939 20301 1 0.16500 119244.000000
1939 23481 1 0.16500 119244.000000
1940 11680 1 0.16500 119244.000000
1940 11730 1 0.16500 119244.000000
1941 11680 1 0.16500 119244.000000
1941 13245 1 0.16500 119244.000000
1942 11680 1 0.16500 119244.000000
1942 15380 1 0.16500 119244.000000
1943 11681 1 0.16500 119244.000000
1943 12497 1 0.16500 119244.000000
1944 11681 1 0.16500 119244.000000
1944 16945 1 0.16500 119244.000000
1945 11681 1 0.16500 119244.000000
1945 22233 1 0.16500 119244.000000
1946 11309 1 0.16500 119244.000000
1946 12399 1 0.16500 119244.000000
1947 11682 1 0.16500 119244.000000
1947 14832 1 0.16500 119244.000000
1948 11309 1 0.16500 119244.000000
1948 13794 1 0.16500 119244.000000
1949 11683 1 0.16500 119244.000000
1949 14797 1 0.16500 119244.000000
1950 11683 1 0.16500 119244.000000
1950 12922 1 0.16500 119244.000000
1951 11683 1 0.16500 119244.000000
1951 24309 1 0.16500 119244.000000
1952 11684 1 0.16500 119244.000000
1952 13452 1 0.16500 119244.000000
1953 11684 1 0.16500 119244.000000
1953 13834 1 0.16500 119244.000000
1954 11684 1 0.16500 119244.000000
1954 13919 1 0.16500 119244.000000
1955 11684 1 0.16500 119244.000000
1955 12805 1 0.16500 119244.000000
1956 11685 1 0.16500 119244.000000
1956 11975 1 0.16500 119244.000000
1957 11685 1 0.16500 119244.000000
1957 12209 1 0.16500 119244.000000
1958 11685 1 0.16500 119244.000000
1958 22353 1 0.16500 119244.000000
1959 11685 1 0.16500 119244.000000
1959 12789 1 0.16500 119244.000000
1960 11686 1 0.16500 119244.000000
1960 17631 1 0.16500 119244.000000
1961 11686 1 0.16500 119244.000000
1961 13605 1 0.16500 119244.000000
1962 11686 1 0.16500 119244.000000
1962 22401 1 0.16500 119244.000000
1963 11686 1 0.16500 119244.000000
1963 12600 1 0.16500 119244.000000
1964 11687 1 0.16500 119244.000000
1964 11831 1 0.16500 119244.000000
1965 11687 1 0.16500 119244.000000
1965 14174 1 0.16500 119244.000000
1966 11687 1 0.16500 119244.000000
1966 16022 1 0.16500 119244.000000
1967 11687 1 0.16500 119244.000000
1967 15677 1 0.16500 119244.000000
1968 11688 1 0.16500 119244.000000
1968 16143 1 0.16500 119244.000000
1969 11688 1 0.16500 119244.000000
1969 18177 1 0.16500 119244.000000
1970 11688 1 0.16500 119244.000000
1970 24189 1 0.16500 119244.000000
1971 11689 1 0.16500 119244.000000
1971 24210 1 0.16500 119244.000000
1972 11689 1 0.16500 119244.000000
1972 21129 1 0.16500 119244.000000
1973 11689 1 0.16500 119244.000000
1973 15381 1 0.16500 119244.000000
1974 13273 1 0.16500 119244.000000
1974 15381 1 0.16500 119244.000000
1975 14383 1 0.16500 119244.000000
1975 15523 1 0.16500 119244.000000
1976 11690 1 0.16500 119244.000000
1976 14587 1 0.16500 119244.000000
1977 11690 1 0.16500 119244.000000
1977 15523 1 0.16500 119244.000000
1978 11690 1 0.16500 119244.000000
1978 12557 1 0.16500 119244.000000
1979 11691 1 0.16500 119244.000000
1979 11716 1 0.16500 119244.000000
1980 11691 1 0.16500 119244.000000
1980 12041 1 0.16500 119244.000000
1981 11691 1 0.16500 119244.000000
1981 13097 1 0.16500 119244.000000
1982 11691 1 0.16500 119244.000000
1982 14999 1 0.16500 119244.000000
1983 11692 1 0.16500 119244.000000
1983 12741 1 0.16500 119244.000000
1984 11692 1 0.16500 119244.000000
1984 24534 1 0.16500 119244.000000
1985 11692 1 0.16500 119244.000000
1985 13714 1 0.16500 119244.000000
1986 11692 1 0.16500 119244.000000
1986 19473 1 0.16500 119244.000000
1987 11693 1 0.16500 119244.000000
1987 21225 1 0.16500 119244.000000
1988 11693 1 0.16500 119244.000000
1988 11748 1 0.16500 119244.000000
1989 15558 1 0.16500 119244.000000
1989 15585 1 0.16500 119244.000000
1990 11693 1 0.16500 119244.000000
1990 15585 1 0.16500 119244.000000
1991 11694 1 0.16500 119244.000000
1991 13660 1 0.16500 119244.000000
1992 11694 1 0.16500 119244.000000
1992 15838 1 0.16500 119244.000000
1993 11694 1 0.16500 119244.000000
1993 24769 1 0.16500 119244.000000
1994 11694 1 0.16500 119244.000000
1994 11904 1 0.16500 119244.000000
1995 11695 1 0.16500 119244.000000
1995 13489 1 0.16500 119244.000000
1996 11695 1 0.16500 119244.000000
1996 12912 1 0.16500 119244.000000
1997 11695 1 0.16500 119244.000000
1997 14153 1 0.16500 119244.000000
1998 11695 1 0.16500 119244.000000
1998 15171 1 0.16500 119244.000000
1999 11696 1 0.16500 119244.000000
1999 14436 1 0.16500 119244.000000
2000 11696 1 0.16500 119244.000000
2000 12837 1 0.16500 119244.000000
2001 11696 1 0.16500 119244.000000
2001 14101 1 0.16500 119244.000000
2002 11696 1 0.16500 119244.000000
2002 14729 1 0.16500 119244.000000
2003 11697 1 0.16500 119244.000000
2003 11934 1 0.16500 119244.000000
2004 11697 1 0.16500 119244.000000
2004 13644 1 0.16500 119244.000000
2005 11697 1 0.16500 119244.000000
2005 15265 1 0.16500 119244.000000
2006 11698 1 0.16500 119244.000000
2006 15682 1 0.16500 119244.000000
2007 11698 1 0.16500 119244.000000
2007 14512 1 0.16500 119244.000000
2008 11698 1 0.16500 119244.000000
2008 14336 1 0.16500 119244.000000
2009 23289 1 0.16500 119244.000000
2009 24649 1 0.16500 119244.000000
2010 11699 1 0.16500 119244.000000
2010 14517 1 0.16500 119244.000000
2011 11699 1 0.16500 119244.000000
2011 12727 1 0.16500 119244.000000
2012 11699 1 0.16500 119244.000000
2012 12809 1 0.16500 119244.000000
2013 11699 1 0.16500 119244.000000
2013 13003 1 0.16500 119244.000000
2014 11700 1 0.16500 119244.000000
2014 21141 1 0.16500 119244.000000
2015 11700 1 0.16500 119244.000000
2015 22377 1 0.16500 119244.000000
2016 11700 1 0.16500 119244.000000
2016 15338 1 0.16500 119244.000000
2017 11700 1 0.16500 119244.000000
2017 12922 1 0.16500 119244.000000
2018 13378 1 0.16500 119244.000000
2018 19413 1 0.16500 119244.000000
2019 19413 1 0.16500 119244.000000
2019 24015 1 0.16500 119244.000000
2020 11701 1 0.16500 119244.000000
2020 14771 1 0.16500 119244.000000
2021 11701 1 0.16500 119244.000000
2021 20817 1 0.16500 119244.000000
2022 11701 1 0.16500 119244.000000
2022 12005 1 0.16500 119244.000000
2023 11702 1 0.16500 119244.000000
2023 12572 1 0.16500 119244.000000
2024 11702 1 0.16500 119244.000000
2024 14721 1 0.16500 119244.000000
2025 11702 1 0.16500 119244.000000
2025 12613 1 0.16500 119244.000000
2026 11702 1 0.16500 119244.000000
2026 24679 1 0.16500 119244.000000
2027 19425 1 0.16500 119244.000000
2027 19977 1 0.16500 119244.000000
2028 15508 1 0.16500 119244.000000
2028 19425 1 0.16500 119244.000000
2029 11703 1 0.16500 119244.000000
2029 13122 1 0.16500 119244.000000
2030 11703 1 0.16500 119244.000000
2030 14798 1 0.16500 119244.000000
2031 11703 1 0.16500 119244.000000
2031 24093 1 0.16500 119244.000000
2032 11703 1 0.16500 119244.000000
2032 12242 1 0.16500 119244.000000
2033 11704 1 0.16500 119244.000000
2033 13639 1 0.16500 119244.000000
2034 11704 1 0.16500 119244.000000
2034 16009 1 0.16500 119244.000000
2035 11704 1 0.16500 119244.000000
2035 15060 1 0.16500 119244.000000
2036 11704 1 0.16500 119244.000000
2036 24558 1 0.16500 119244.000000
2037 11705 1 0.16500 119244.000000
2037 14554 1 0.16500 119244.000000
2038 11705 1 0.16500 119244.000000
2038 14693 1 0.16500 119244.000000
2039 11705 1 0.16500 119244.000000
2039 14608 1 0.16500 119244.000000
2040 11705 1 0.16500 119244.000000
2040 11918 1 0.16500 119244.000000
2041 16050 1 0.16500 119244.000000
2041 19437 1 0.16500 119244.000000
2042 19437 1 0.16500 119244.000000
2042 24321 1 0.16500 119244.000000
2043 19449 1 0.16500 119244.000000
2043 22449 1 0.16500 119244.000000
2044 14872 1 0.16500 119244.000000
2044 19449 1 0.16500 119244.000000
2045 19449 1 0.16500 119244.000000
2045 22005 1 0.16500 119244.000000
2046 16539 1 0.16500 119244.000000
2046 19461 1 0.16500 119244.000000
2047 19461 1 0.16500 119244.000000
2047 23970 1 0.16500 119244.000000
2048 14912 1 0.16500 119244.000000
2048 19461 1 0.16500 119244.000000
2049 11706 1 0.16500 119244.000000
2049 12857 1 0.16500 119244.000000
2050 11706 1 0.16500 119244.000000
2050 15028 1 0.16500 119244.000000
2051 11706 1 0.16500 119244.000000
2051 13212 1 0.16500 119244.000000
2052 11706 1 0.16500 119244.000000
2052 12924 1 0.16500 119244.000000
2053 11707 1 0.16500 119244.000000
2053 11712 1 0.16500 119244.000000
2054 11707 1 0.16500 119244.000000
2054 12882 1 0.16500 119244.000000
2055 11708 1 0.16500 119244.000000
2055 11972 1 0.16500 119244.000000
2056 11708 1 0.16500 119244.000000
2056 15619 1 0.16500 119244.000000
2057 11708 1 0.16500 119244.000000
2057 15758 1 0.16500 119244.000000
2058 11708 1 0.16500 119244.000000
2058 11896 1 0.16500 119244.000000
2059 11709 1 0.16500 119244.000000
2059 13036 1 0.16500 119244.000000
2060 11709 1 0.16500 119244.000000
2060 11974 1 0.16500 119244.000000
2061 11709 1 0.16500 119244.000000
2061 13892 1 0.16500 119244.000000
2062 11710 1 0.16500 119244.000000
2062 15552 1 0.16500 119244.000000
2063 11710 1 0.16500 119244.000000
2063 14751 1 0.16500 119244.000000
2064 11710 1 0.16500 119244.000000
2064 12145 1 0.16500 119244.000000
2065 11710 1 0.16500 119244.000000
2065 15285 1 0.16500 119244.000000
2066 19473 1 0.16500 119244.000000
2066 21897 1 0.16500 119244.000000
2067 11711 1 0.16500 119244.000000
2067 13272 1 0.16500 119244.000000
2068 11711 1 0.16500 119244.000000
2068 14982 1 0.16500 119244.000000
2069 11711 1 0.16500 119244.000000
2069 12734 1 0.16500 119244.000000
2070 11712 1 0.16500 119244.000000
2070 11765 1 0.16500 119244.000000
2071 11712 1 0.16500 119244.000000
2071 14116 1 0.16500 119244.000000
2072 11713 1 0.16500 119244.000000
2072 13606 1 0.16500 119244.000000
2073 11713 1 0.16500 119244.000000
2073 14642 1 0.16500 119244.000000
2074 11408 1 0.16500 119244.000000
2074 15453 1 0.16500 119244.000000
2075 11714 1 0.16500 119244.000000
2075 12225 1 0.16500 119244.000000
2076 11714 1 0.16500 119244.000000
2076 14077 1 0.16500 119244.000000
2077 11714 1 0.16500 119244.000000
2077 14838 1 0.16500 119244.000000
2078 11714 1 0.16500 119244.000000
2078 16113 1 0.16500 119244.000000
2079 11715 1 0.16500 119244.000000
2079 13839 1 0.16500 119244.000000
2080 11715 1 0.16500 119244.000000
2080 14517 1 0.16500 119244.000000
2081 11715 1 0.16500 119244.000000
2081 12671 1 0.16500 119244.000000
2082 11716 1 0.16500 119244.000000
2082 12133 1 0.16500 119244.000000
2083 11716 1 0.16500 119244.000000
2083 15804 1 0.16500 119244.000000
2084 11717 1 0.16500 119244.000000
2084 14127 1 0.16500 119244.000000
2085 11717 1 0.16500 119244.000000
2085 14464 1 0.16500 119244.000000
2086 11717 1 0.16500 119244.000000
2086 15709 1 0.16500 119244.000000
2087 11717 1 0.16500 119244.000000
2087 12616 1 0.16500 119244.000000
2088 11718 1 0.16500 119244.000000
2088 12134 1 0.16500 119244.000000
2089 11718 1 0.16500 119244.000000
2089 13384 1 0.16500 119244.000000
2090 11718 1 0.16500 119244.000000
2090 12843 1 0.16500 119244.000000
2091 11718 1 0.16500 119244.000000
2091 13597 1 0.16500 119244.000000
2092 11719 1 0.16500 119244.000000
2092 15450 1 0.16500 119244.000000
2093 11719 1 0.16500 119244.000000
2093 13399 1 0.16500 119244.000000
2094 11719 1 0.16500 119244.000000
2094 14486 1 0.16500 119244.000000
2095 11719 1 0.16500 119244.000000
2095 20349 1 0.16500 119244.000000
2096 14144 1 0.16500 119244.000000
2096 19485 1 0.16500 119244.000000
2097 19485 1 0.16500 119244.000000
2097 20373 1 0.16500 119244.000000
2098 11720 1 0.16500 119244.000000
2098 16023 1 0.16500 119244.000000
2099 16023 1 0.16500 119244.000000
2099 24069 1 0.16500 119244.000000
2100 11720 1 0.16500 119244.000000
2100 18163 1 0.16500 119244.000000
2101 11721 1 0.16500 119244.000000
2101 11742 1 0.16500 119244.000000
2102 11721 1 0.16500 119244.000000
2102 15475 1 0.16500 119244.000000
2103 11721 1 0.16500 119244.000000
2103 15474 1 0.16500 119244.000000
2104 11722 1 0.16500 119244.000000
2104 15913 1 0.16500 119244.000000
2105 11722 1 0.16500 119244.000000
2105 13173 1 0.16500 119244.000000
2106 11722 1 0.16500 119244.000000
2106 15716 1 0.16500 119244.000000
2107 11723 1 0.16500 119244.000000
2107 22209 1 0.16500 119244.000000
2108 11723 1 0.16500 119244.000000
2108 16040 1 0.16500 119244.000000
2109 11724 1 0.16500 119244.000000
2109 12548 1 0.16500 119244.000000
2110 11724 1 0.16500 119244.000000
2110 15467 1 0.16500 119244.000000
2111 11724 1 0.16500 119244.000000
2111 14274 1 0.16500 119244.000000
2112 11724 1 0.16500 119244.000000
2112 24030 1 0.16500 119244.000000
2113 11725 1 0.16500 119244.000000
2113 15632 1 0.16500 119244.000000
2114 11725 1 0.16500 119244.000000
2114 12735 1 0.16500 119244.000000
2115 11725 1 0.16500 119244.000000
2115 13211 1 0.16500 119244.000000
2116 11725 1 0.16500 119244.000000
2116 14899 1 0.16500 119244.000000
2117 11956 1 0.16500 119244.000000
2117 13539 1 0.16500 119244.000000
2118 11726 1 0.16500 119244.000000
2118 13539 1 0.16500 119244.000000
2119 11726 1 0.16500 119244.000000
2119 15618 1 0.16500 119244.000000
2120 11726 1 0.16500 119244.000000
2120 13748 1 0.16500 119244.000000
2121 11727 1 0.16500 119244.000000
2121 13685 1 0.16500 119244.000000
2122 11727 1 0.16500 119244.000000
2122 13171 1 0.16500 119244.000000
2123 11727 1 0.16500 119244.000000
2123 12515 1 0.16500 119244.000000
2124 11727 1 0.16500 119244.000000
2124 16074 1 0.16500 119244.000000
2125 11728 1 0.16500 119244.000000
2125 16116 1 0.16500 119244.000000
2126 11728 1 0.16500 119244.000000
2126 12916 1 0.16500 119244.000000
2127 11729 1 0.16500 119244.000000
2127 12104 1 0.16500 119244.000000
2128 11729 1 0.16500 119244.000000
2128 12388 1 0.16500 119244.000000
2129 11729 1 0.16500 119244.000000
2129 15744 1 0.16500 119244.000000
2130 11729 1 0.16500 119244.000000
2130 15147 1 0.16500 119244.000000
2131 11730 1 0.16500 119244.000000
2131 14530 1 0.16500 119244.000000
2132 11730 1 0.16500 119244.000000
2132 14016 1 0.16500 119244.000000
2133 11731 1 0.16500 119244.000000
2133 11783 1 0.16500 119244.000000
2134 11731 1 0.16500 119244.000000
2134 13067 1 0.16500 119244.000000
2135 11731 1 0.16500 119244.000000
2135 14906 1 0.16500 119244.000000
2136 11731 1 0.16500 119244.000000
2136 13390 1 0.16500 119244.000000
2137 11732 1 0.16500 119244.000000
2137 13848 1 0.16500 119244.000000
2138 11732 1 0.16500 119244.000000
2138 15250 1 0.16500 119244.000000
2139 11732 1 0.16500 119244.000000
2139 19929 1 0.16500 119244.000000
2140 11733 1 0.16500 119244.000000
2140 13568 1 0.16500 119244.000000
2141 11733 1 0.16500 119244.000000
2141 12833 1 0.16500 119244.000000
2142 11733 1 0.16500 119244.000000
2142 12532 1 0.16500 119244.000000
2143 11733 1 0.16500 119244.000000
2143 14803 1 0.16500 119244.000000
2144 11734 1 0.16500 119244.000000
2144 15904 1 0.16500 119244.000000
2145 11734 1 0.16500 119244.000000
2145 12828 1 0.16500 119244.000000
2146 11734 1 0.16500 119244.000000
2146 13255 1 0.16500 119244.000000
2147 11734 1 0.16500 119244.000000
2147 12854 1 0.16500 119244.000000
2148 17799 1 0.16500 119244.000000
2148 19497 1 0.16500 119244.000000
2149 11735 1 0.16500 119244.000000
2149 13187 1 0.16500 119244.000000
2150 11735 1 0.16500 119244.000000
2150 24573 1 0.16500 119244.000000
2151 11735 1 0.16500 119244.000000
2151 14655 1 0.16500 119244.000000
2152 11736 1 0.16500 119244.000000
2152 15441 1 0.16500 119244.000000
2153 11736 1 0.16500 119244.000000
2153 15695 1 0.16500 119244.000000
2154 11736 1 0.16500 119244.000000
2154 14804 1 0.16500 119244.000000
2155 11736 1 0.16500 119244.000000
2155 15924 1 0.16500 119244.000000
2156 11737 1 0.16500 119244.000000
2156 15506 1 0.16500 119244.000000
2157 11737 1 0.16500 119244.000000
2157 15914 1 0.16500 119244.000000
2158 11737 1 0.16500 119244.000000
2158 13527 1 0.16500 119244.000000
2159 14106 1 0.16500 119244.000000
2159 19509 1 0.16500 119244.000000
2160 12369 1 0.16500 119244.000000
2160 19509 1 0.16500 119244.000000
2161 12533 1 0.16500 119244.000000
2161 19521 1 0.16500 119244.000000
2162 16092 1 0.16500 119244.000000
2162 19521 1 0.16500 119244.000000
2163 14089 1 0.16500 119244.000000
2163 21873 1 0.16500 119244.000000
2164 19521 1 0.16500 119244.000000
2164 21873 1 0.16500 119244.000000
2165 19533 1 0.16500 119244.000000
2165 23481 1 0.16500 119244.000000
2166 13648 1 0.16500 119244.000000
2166 19533 1 0.16500 119244.000000
2167 11738 1 0.16500 119244.000000
2167 15006 1 0.16500 119244.000000
2168 11738 1 0.16500 119244.000000
2168 14134 1 0.16500 119244.000000
2169 11738 1 0.16500 119244.000000
2169 15057 1 0.16500 119244.000000
2170 11738 1 0.16500 119244.000000
2170 14267 1 0.16500 119244.000000
2171 11739 1 0.16500 119244.000000
2171 13092 1 0.16500 119244.000000
2172 11739 1 0.16500 119244.000000
2172 14354 1 0.16500 119244.000000
2173 11739 1 0.16500 119244.000000
2173 16052 1 0.16500 119244.000000
2174 11739 1 0.16500 119244.000000
2174 15088 1 0.16500 119244.000000
2175 11740 1 0.16500 119244.000000
2175 12543 1 0.16500 119244.000000
2176 16035 1 0.16500 119244.000000
2176 17547 1 0.16500 119244.000000
2177 11740 1 0.16500 119244.000000
2177 23001 1 0.16500 119244.000000
2178 11740 1 0.16500 119244.000000
2178 16035 1 0.16500 119244.000000
2179 11741 1 0.16500 119244.000000
2179 14977 1 0.16500 119244.000000
2180 11741 1 0.16500 119244.000000
2180 14093 1 0.16500 119244.000000
2181 11742 1 0.16500 119244.000000
2181 15407 1 0.16500 119244.000000
2182 11742 1 0.16500 119244.000000
2182 13752 1 0.16500 119244.000000
2183 11742 1 0.16500 119244.000000
2183 13591 1 0.16500 119244.000000
2184 11743 1 0.16500 119244.000000
2184 12355 1 0.16500 119244.000000
2185 11743 1 0.16500 119244.000000
2185 14336 1 0.16500 119244.000000
2186 11743 1 0.16500 119244.000000
2186 16156 1 0.16500 119244.000000
2187 11743 1 0.16500 119244.000000
2187 13905 1 0.16500 119244.000000
2188 11744 1 0.16500 119244.000000
2188 12564 1 0.16500 119244.000000
2189 11744 1 0.16500 119244.000000
2189 15767 1 0.16500 119244.000000
2190 11744 1 0.16500 119244.000000
2190 12158 1 0.16500 119244.000000
2191 11744 1 0.16500 119244.000000
2191 13576 1 0.16500 119244.000000
2192 11745 1 0.16500 119244.000000
2192 16148 1 0.16500 119244.000000
2193 11745 1 0.16500 119244.000000
2193 15945 1 0.16500 119244.000000
2194 15045 1 0.16500 119244.000000
2194 15966 1 0.16500 119244.000000
2195 11745 1 0.16500 119244.000000
2195 15966 1 0.16500 119244.000000
2196 11746 1 0.16500 119244.000000
2196 15434 1 0.16500 119244.000000
2197 11746 1 0.16500 119244.000000
2197 15237 1 0.16500 119244.000000
2198 11746 1 0.16500 119244.000000
2198 15661 1 0.16500 119244.000000
2199 11746 1 0.16500 119244.000000
2199 14808 1 0.16500 119244.000000
2200 14933 1 0.16500 119244.000000
2200 19545 1 0.16500 119244.000000
2201 14612 1 0.16500 119244.000000
2201 19545 1 0.16500 119244.000000
2202 11747 1 0.16500 119244.000000
2202 12511 1 0.16500 119244.000000
2203 11747 1 0.16500 119244.000000
2203 12489 1 0.16500 119244.000000
2204 11747 1 0.16500 119244.000000
2204 15695 1 0.16500 119244.000000
2205 11747 1 0.16500 119244.000000
2205 13541 1 0.16500 119244.000000
2206 11748 1 0.16500 119244.000000
2206 15564 1 0.16500 119244.000000
2207 11748 1 0.16500 119244.000000
2207 12815 1 0.16500 119244.000000
2208 11748 1 0.16500 119244.000000
2208 11754 1 0.16500 119244.000000
2209 11749 1 0.16500 119244.000000
2209 14802 1 0.16500 119244.000000
2210 11749 1 0.16500 119244.000000
2210 12704 1 0.16500 119244.000000
2211 11749 1 0.16500 119244.000000
2211 12650 1 0.16500 119244.000000
2212 11750 1 0.16500 119244.000000
2212 12847 1 0.16500 119244.000000
2213 11750 1 0.16500 119244.000000
2213 14969 1 0.16500 119244.000000
2214 11750 1 0.16500 119244.000000
2214 12374 1 0.16500 119244.000000
2215 11750 1 0.16500 119244.000000
2215 16141 1 0.16500 119244.000000
2216 12130 1 0.16500 119244.000000
2216 19557 1 0.16500 119244.000000
2217 19557 1 0.16500 119244.000000
2217 20613 1 0.16500 119244.000000
2218 11751 1 0.16500 119244.000000
2218 14965 1 0.16500 119244.000000
2219 11751 1 0.16500 119244.000000
2219 12393 1 0.16500 119244.000000
2220 11751 1 0.16500 119244.000000
2220 15187 1 0.16500 119244.000000
2221 11751 1 0.16500 119244.000000
2221 15408 1 0.16500 119244.000000
2222 11752 1 0.16500 119244.000000
2222 12934 1 0.16500 119244.000000
2223 11752 1 0.16500 119244.000000
2223 14877 1 0.16500 119244.000000
2224 11752 1 0.16500 119244.000000
2224 13491 1 0.16500 119244.000000
2225 11752 1 0.16500 119244.000000
2225 14224 1 0.16500 119244.000000
2226 11753 1 0.16500 119244.000000
2226 13136 1 0.16500 119244.000000
2227 11753 1 0.16500 119244.000000
2227 15321 1 0.16500 119244.000000
2228 11753 1 0.16500 119244.000000
2228 15115 1 0.16500 119244.000000
2229 11753 1 0.16500 119244.000000
2229 13127 1 0.16500 119244.000000
2230 11754 1 0.16500 119244.000000
2230 14721 1 0.16500 119244.000000
2231 11754 1 0.16500 119244.000000
2231 15507 1 0.16500 119244.000000
2232 11754 1 0.16500 119244.000000
2232 12672 1 0.16500 119244.000000
2233 12251 1 0.16500 119244.000000
2233 19569 1 0.16500 119244.000000
2234 19569 1 0.16500 119244.000000
2234 21453 1 0.16500 119244.000000
2235 11755 1 0.16500 119244.000000
2235 13601 1 0.16500 119244.000000
2236 11755 1 0.16500 119244.000000
2236 12658 1 0.16500 119244.000000
2237 11755 1 0.16500 119244.000000
2237 14485 1 0.16500 119244.000000
2238 11755 1 0.16500 119244.000000
2238 13125 1 0.16500 119244.000000
2239 11756 1 0.16500 119244.000000
2239 24039 1 0.16500 119244.000000
2240 11756 1 0.16500 119244.000000
2240 22425 1 0.16500 119244.000000
2241 11756 1 0.16500 119244.000000
2241 12278 1 0.16500 119244.000000
2242 11757 1 0.16500 119244.000000
2242 15679 1 0.16500 119244.000000
2243 11757 1 0.16500 119244.000000
2243 13465 1 0.16500 119244.000000
2244 11757 1 0.16500 119244.000000
2244 12670 1 0.16500 119244.000000
2245 11757 1 0.16500 119244.000000
2245 15486 1 0.16500 119244.000000
2246 11758 1 0.16500 119244.000000
2246 17253 1 0.16500 119244.000000
2247 11758 1 0.16500 119244.000000
2247 16128 1 0.16500 119244.000000
2248 11758 1 0.16500 119244.000000
2248 12857 1 0.16500 119244.000000
2249 11758 1 0.16500 119244.000000
2249 14641 1 0.16500 119244.000000
2250 11759 1 0.16500 119244.000000
2250 14248 1 0.16500 119244.000000
2251 11759 1 0.16500 119244.000000
2251 12736 1 0.16500 119244.000000
2252 11759 1 0.16500 119244.000000
2252 15204 1 0.16500 119244.000000
2253 11760 1 0.16500 119244.000000
2253 24000 1 0.16500 119244.000000
2254 11760 1 0.16500 119244.000000
2254 13282 1 0.16500 119244.000000
2255 11760 1 0.16500 119244.000000
2255 13351 1 0.16500 119244.000000
2256 11760 1 0.16500 119244.000000
2256 13677 1 0.16500 119244.000000
2257 11761 1 0.16500 119244.000000
2257 12678 1 0.16500 119244.000000
2258 11761 1 0.16500 119244.000000
2258 14287 1 0.16500 119244.000000
2259 11761 1 0.16500 119244.000000
2259 15660 1 0.16500 119244.000000
2260 11761 1 0.16500 119244.000000
2260 13180 1 0.16500 119244.000000
2261 11762 1 0.16500 119244.000000
2261 14433 1 0.16500 119244.000000
2262 11762 1 0.16500 119244.000000
2262 15737 1 0.16500 119244.000000
2263 11762 1 0.16500 119244.000000
2263 12795 1 0.16500 119244.000000
2264 11762 1 0.16500 119244.000000
2264 14672 1 0.16500 119244.000000
2265 11763 1 0.16500 119244.000000
2265 14323 1 0.16500 119244.000000
2266 11763 1 0.16500 119244.000000
2266 12978 1 0.16500 119244.000000
2267 11763 1 0.16500 119244.000000
2267 13463 1 0.16500 119244.000000
2268 11763 1 0.16500 119244.000000
2268 12164 1 0.16500 119244.000000
2269 11940 1 0.16500 119244.000000
2269 16085 1 0.16500 119244.000000
2270 11764 1 0.16500 119244.000000
2270 16085 1 0.16500 119244.000000
2271 11764 1 0.16500 119244.000000
2271 15950 1 0.16500 119244.000000
2272 11764 1 0.16500 119244.000000
2272 11980 1 0.16500 119244.000000
2273 11765 1 0.16500 119244.000000
2273 12425 1 0.16500 119244.000000
2274 11765 1 0.16500 119244.000000
2274 14584 1 0.16500 119244.000000
2275 11765 1 0.16500 119244.000000
2275 14833 1 0.16500 119244.000000
2276 11766 1 0.16500 119244.000000
2276 14042 1 0.16500 119244.000000
2277 11766 1 0.16500 119244.000000
2277 12689 1 0.16500 119244.000000
2278 11766 1 0.16500 119244.000000
2278 13128 1 0.16500 119244.000000
2279 11766 1 0.16500 119244.000000
2279 15883 1 0.16500 119244.000000
2280 11767 1 0.16500 119244.000000
2280 14962 1 0.16500 119244.000000
2281 11767 1 0.16500 119244.000000
2281 13526 1 0.16500 119244.000000
2282 11767 1 0.16500 119244.000000
2282 15102 1 0.16500 119244.000000
2283 11767 1 0.16500 119244.000000
2283 15251 1 0.16500 119244.000000
2284 11768 1 0.16500 119244.000000
2284 13243 1 0.16500 119244.000000
2285 11768 1 0.16500 119244.000000
2285 13257 1 0.16500 119244.000000
2286 11768 1 0.16500 119244.000000
2286 12057 1 0.16500 119244.000000
2287 11768 1 0.16500 119244.000000
2287 14583 1 0.16500 119244.000000
2288 11769 1 0.16500 119244.000000
2288 14034 1 0.16500 119244.000000
2289 11769 1 0.16500 119244.000000
2289 12382 1 0.16500 119244.000000
2290 11769 1 0.16500 119244.000000
2290 14519 1 0.16500 119244.000000
2291 11770 1 0.16500 119244.000000
2291 16076 1 0.16500 119244.000000
2292 11770 1 0.16500 119244.000000
2292 14228 1 0.16500 119244.000000
2293 11770 1 0.16500 119244.000000
2293 14334 1 0.16500 119244.000000
2294 11770 1 0.16500 119244.000000
2294 11990 1 0.16500 119244.000000
2295 15031 1 0.16500 119244.000000
2295 19581 1 0.16500 119244.000000
2296 12499 1 0.16500 119244.000000
2296 19593 1 0.16500 119244.000000
2297 19593 1 0.16500 119244.000000
2297 21045 1 0.16500 119244.000000
2298 17449 1 0.16500 119244.000000
2298 19593 1 0.16500 119244.000000
2299 13519 1 0.16500 119244.000000
2299 19605 1 0.16500 119244.000000
2300 11771 1 0.16500 119244.000000
2300 15889 1 0.16500 119244.000000
2301 11771 1 0.16500 119244.000000
2301 14637 1 0.16500 119244.000000
2302 11771 1 0.16500 119244.000000
2302 11973 1 0.16500 119244.000000
2303 11771 1 0.16500 119244.000000
2303 13603 1 0.16500 119244.000000
2304 13494 1 0.16500 119244.000000
2304 19617 1 0.16500 119244.000000
2305 11772 1 0.16500 119244.000000
2305 15796 1 0.16500 119244.000000
2306 11772 1 0.16500 119244.000000
2306 13809 1 0.16500 119244.000000
2307 11772 1 0.16500 119244.000000
2307 12889 1 0.16500 119244.000000
2308 11772 1 0.16500 119244.000000
2308 15434 1 0.16500 119244.000000
2309 11773 1 0.16500 119244.000000
2309 12274 1 0.16500 119244.000000
2310 11773 1 0.16500 119244.000000
2310 15188 1 0.16500 119244.000000
2311 11773 1 0.16500 119244.000000
2311 14833 1 0.16500 119244.000000
2312 11773 1 0.16500 119244.000000
2312 15275 1 0.16500 119244.000000
2313 11774 1 0.16500 119244.000000
2313 24552 1 0.16500 119244.000000
2314 11774 1 0.16500 119244.000000
2314 13137 1 0.16500 119244.000000
2315 11774 1 0.16500 119244.000000
2315 13473 1 0.16500 119244.000000
2316 11774 1 0.16500 119244.000000
2316 14882 1 0.16500 119244.000000
2317 11775 1 0.16500 119244.000000
2317 15816 1 0.16500 119244.000000
2318 11775 1 0.16500 119244.000000
2318 15841 1 0.16500 119244.000000
2319 11775 1 0.16500 119244.000000
2319 13161 1 0.16500 119244.000000
2320 11775 1 0.16500 119244.000000
2320 12472 1 0.16500 119244.000000
2321 11776 1 0.16500 119244.000000
2321 13896 1 0.16500 119244.000000
2322 11776 1 0.16500 119244.000000
2322 14460 1 0.16500 119244.000000
2323 11776 1 0.16500 119244.000000
2323 14976 1 0.16500 119244.000000
2324 19641 1 0.16500 119244.000000
2324 20925 1 0.16500 119244.000000
2325 14594 1 0.16500 119244.000000
2325 19641 1 0.16500 119244.000000
2326 11777 1 0.16500 119244.000000
2326 13209 1 0.16500 119244.000000
2327 11777 1 0.16500 119244.000000
2327 12896 1 0.16500 119244.000000
2328 11777 1 0.16500 119244.000000
2328 11826 1 0.16500 119244.000000
2329 11777 1 0.16500 119244.000000
2329 13658 1 0.16500 119244.000000
2330 11778 1 0.16500 119244.000000
2330 14286 1 0.16500 119244.000000
2331 11778 1 0.16500 119244.000000
2331 16070 1 0.16500 119244.000000
2332 13517 1 0.16500 119244.000000
2332 14286 1 0.16500 119244.000000
2333 11779 1 0.16500 119244.000000
2333 12186 1 0.16500 119244.000000
2334 11779 1 0.16500 119244.000000
2334 12025 1 0.16500 119244.000000
2335 11779 1 0.16500 119244.000000
2335 14043 1 0.16500 119244.000000
2336 11779 1 0.16500 119244.000000
2336 14453 1 0.16500 119244.000000
2337 14628 1 0.16500 119244.000000
2337 15041 1 0.16500 119244.000000
2338 11608 1 0.16500 119244.000000
2338 11780 1 0.16500 119244.000000
2339 15041 1 0.16500 119244.000000
2339 15804 1 0.16500 119244.000000
2340 11780 1 0.16500 119244.000000
2340 15041 1 0.16500 119244.000000
2341 11781 1 0.16500 119244.000000
2341 14806 1 0.16500 119244.000000
2342 12251 1 0.16500 119244.000000
2342 14288 1 0.16500 119244.000000
2343 11781 1 0.16500 119244.000000
2343 14288 1 0.16500 119244.000000
2344 11782 1 0.16500 119244.000000
2344 12373 1 0.16500 119244.000000
2345 11782 1 0.16500 119244.000000
2345 13005 1 0.16500 119244.000000
2346 11782 1 0.16500 119244.000000
2346 15753 1 0.16500 119244.000000
2347 11782 1 0.16500 119244.000000
2347 14807 1 0.16500 119244.000000
2348 11783 1 0.16500 119244.000000
2348 13191 1 0.16500 119244.000000
2349 11783 1 0.16500 119244.000000
2349 15597 1 0.16500 119244.000000
2350 11784 1 0.16500 119244.000000
2350 12719 1 0.16500 119244.000000
2351 11784 1 0.16500 119244.000000
2351 14031 1 0.16500 119244.000000
2352 12719 1 0.16500 119244.000000
2352 15121 1 0.16500 119244.000000
2353 11784 1 0.16500 119244.000000
2353 15023 1 0.16500 119244.000000
2354 11785 1 0.16500 119244.000000
2354 15668 1 0.16500 119244.000000
2355 11785 1 0.16500 119244.000000
2355 15831 1 0.16500 119244.000000
2356 11785 1 0.16500 119244.000000
2356 12652 1 0.16500 119244.000000
2357 11785 1 0.16500 119244.000000
2357 13412 1 0.16500 119244.000000
2358 11786 1 0.16500 119244.000000
2358 12851 1 0.16500 119244.000000
2359 11786 1 0.16500 119244.000000
2359 13818 1 0.16500 119244.000000
2360 11786 1 0.16500 119244.000000
2360 13967 1 0.16500 119244.000000
2361 11786 1 0.16500 119244.000000
2361 14399 1 0.16500 119244.000000
2362 11787 1 0.16500 119244.000000
2362 13137 1 0.16500 119244.000000
2363 11787 1 0.16500 119244.000000
2363 14440 1 0.16500 119244.000000
2364 11787 1 0.16500 119244.000000
2364 14490 1 0.16500 119244.000000
2365 11787 1 0.16500 119244.000000
2365 12077 1 0.16500 119244.000000
2366 11788 1 0.16500 119244.000000
2366 13289 1 0.16500 119244.000000
2367 11788 1 0.16500 119244.000000
2367 14947 1 0.16500 119244.000000
2368 11788 1 0.16500 119244.000000
2368 13385 1 0.16500 119244.000000
2369 11788 1 0.16500 119244.000000
2369 13137 1 0.16500 119244.000000
2370 11789 1 0.16500 119244.000000
2370 14554 1 0.16500 119244.000000
2371 11789 1 0.16500 119244.000000
2371 14174 1 0.16500 119244.000000
2372 11789 1 0.16500 119244.000000
2372 13017 1 0.16500 119244.000000
2373 11789 1 0.16500 119244.000000
2373 15478 1 0.16500 119244.000000
2374 11790 1 0.16500 119244.000000
2374 14520 1 0.16500 119244.000000
2375 11790 1 0.16500 119244.000000
2375 12348 1 0.16500 119244.000000
2376 11790 1 0.16500 119244.000000
2376 14523 1 0.16500 119244.000000
2377 11790 1 0.16500 119244.000000
2377 13491 1 0.16500 119244.000000
2378 11791 1 0.16500 119244.000000
2378 11795 1 0.16500 119244.000000
2379 11791 1 0.16500 119244.000000
2379 13989 1 0.16500 119244.000000
2380 11791 1 0.16500 119244.000000
2380 13001 1 0.16500 119244.000000
2381 11791 1 0.16500 119244.000000
2381 13050 1 0.16500 119244.000000
2382 11792 1 0.16500 119244.000000
2382 23934 1 0.16500 119244.000000
2383 11792 1 0.16500 119244.000000
2383 14037 1 0.16500 119244.000000
2384 11792 1 0.16500 119244.000000
2384 15912 1 0.16500 119244.000000
2385 11792 1 0.16500 119244.000000
2385 12800 1 0.16500 119244.000000
2386 11793 1 0.16500 119244.000000
2386 14610 1 0.16500 119244.000000
2387 11793 1 0.16500 119244.000000
2387 13847 1 0.16500 119244.000000
2388 11793 1 0.16500 119244.000000
2388 12635 1 0.16500 119244.000000
2389 11793 1 0.16500 119244.000000
2389 16188 1 0.16500 119244.000000
2390 11794 1 0.16500 119244.000000
2390 15325 1 0.16500 119244.000000
2391 11794 1 0.16500 119244.000000
2391 13891 1 0.16500 119244.000000
2392 11794 1 0.16500 119244.000000
2392 14821 1 0.16500 119244.000000
2393 11794 1 0.16500 119244.000000
2393 14554 1 0.16500 119244.000000
2394 11795 1 0.16500 119244.000000
2394 12827 1 0.16500 119244.000000
2395 11795 1 0.16500 119244.000000
2395 16056 1 0.16500 119244.000000
2396 11795 1 0.16500 119244.000000
2396 11992 1 0.16500 119244.000000
2397 15518 1 0.16500 119244.000000
2397 16056 1 0.16500 119244.000000
2398 11796 1 0.16500 119244.000000
2398 15586 1 0.16500 119244.000000
2399 11796 1 0.16500 119244.000000
2399 14881 1 0.16500 119244.000000
2400 11796 1 0.16500 119244.000000
2400 11834 1 0.16500 119244.000000
2401 13777 1 0.16500 119244.000000
2401 15586 1 0.16500 119244.000000
2402 11797 1 0.16500 119244.000000
2402 15673 1 0.16500 119244.000000
2403 11797 1 0.16500 119244.000000
2403 14512 1 0.16500 119244.000000
2404 11797 1 0.16500 119244.000000
2404 11994 1 0.16500 119244.000000
2405 11797 1 0.16500 119244.000000
2405 12506 1 0.16500 119244.000000
2406 11798 1 0.16500 119244.000000
2406 16038 1 0.16500 119244.000000
2407 11798 1 0.16500 119244.000000
2407 15439 1 0.16500 119244.000000
2408 11798 1 0.16500 119244.000000
2408 13051 1 0.16500 119244.000000
2409 11798 1 0.16500 119244.000000
2409 15650 1 0.16500 119244.000000
2410 11799 1 0.16500 119244.000000
2410 13198 1 0.16500 119244.000000
2411 11799 1 0.16500 119244.000000
2411 15474 1 0.16500 119244.000000
2412 11799 1 0.16500 119244.000000
2412 13640 1 0.16500 119244.000000
2413 11800 1 0.16500 119244.000000
2413 16137 1 0.16500 119244.000000
2414 11800 1 0.16500 119244.000000
2414 14948 1 0.16500 119244.000000
2415 11800 1 0.16500 119244.000000
2415 14809 1 0.16500 119244.000000
2416 11800 1 0.16500 119244.000000
2416 14545 1 0.16500 119244.000000
2417 11801 1 0.16500 119244.000000
2417 12730 1 0.16500 119244.000000
2418 11801 1 0.16500 119244.000000
2418 15111 1 0.16500 119244.000000
2419 11801 1 0.16500 119244.000000
2419 22881 1 0.16500 119244.000000
2420 11801 1 0.16500 119244.000000
2420 21765 1 0.16500 119244.000000
2421 11802 1 0.16500 119244.000000
2421 17813 1 0.16500 119244.000000
2422 11802 1 0.16500 119244.000000
2422 13689 1 0.16500 119244.000000
2423 11802 1 0.16500 119244.000000
2423 13840 1 0.16500 119244.000000
2424 11802 1 0.16500 119244.000000
2424 15216 1 0.16500 119244.000000
2425 11803 1 0.16500 119244.000000
2425 14281 1 0.16500 119244.000000
2426 11803 1 0.16500 119244.000000
2426 12479 1 0.16500 119244.000000
2427 11803 1 0.16500 119244.000000
2427 15282 1 0.16500 119244.000000
2428 11803 1 0.16500 119244.000000
2428 11870 1 0.16500 119244.000000
2429 18993 1 0.16500 119244.000000
2429 19653 1 0.16500 119244.000000
2430 15697 1 0.16500 119244.000000
2430 19653 1 0.16500 119244.000000
2431 16245 1 0.16500 119244.000000
2431 19665 1 0.16500 119244.000000
2432 11308 1 0.16500 119244.000000
2432 22665 1 0.16500 119244.000000
2433 19665 1 0.16500 119244.000000
2433 22665 1 0.16500 119244.000000
2434 11804 1 0.16500 119244.000000
2434 14244 1 0.16500 119244.000000
2435 11804 1 0.16500 119244.000000
2435 15914 1 0.16500 119244.000000
2436 11804 1 0.16500 119244.000000
2436 12122 1 0.16500 119244.000000
2437 11804 1 0.16500 119244.000000
2437 15848 1 0.16500 119244.000000
2438 11805 1 0.16500 119244.000000
2438 14020 1 0.16500 119244.000000
2439 11805 1 0.16500 119244.000000
2439 14895 1 0.16500 119244.000000
2440 11805 1 0.16500 119244.000000
2440 14580 1 0.16500 119244.000000
2441 11805 1 0.16500 119244.000000
2441 13626 1 0.16500 119244.000000
2442 11274 1 0.16500 119244.000000
2442 11806 1 0.16500 119244.000000
2443 11806 1 0.16500 119244.000000
2443 21249 1 0.16500 119244.000000
2444 11806 1 0.16500 119244.000000
2444 12996 1 0.16500 119244.000000
2445 11806 1 0.16500 119244.000000
2445 13779 1 0.16500 119244.000000
2446 11807 1 0.16500 119244.000000
2446 12108 1 0.16500 119244.000000
2447 11807 1 0.16500 119244.000000
2447 12469 1 0.16500 119244.000000
2448 11807 1 0.16500 119244.000000
2448 14209 1 0.16500 119244.000000
2449 11807 1 0.16500 119244.000000
2449 13579 1 0.16500 119244.000000
2450 14364 1 0.16500 119244.000000
2450 19677 1 0.16500 119244.000000
2451 19677 1 0.16500 119244.000000
2451 21729 1 0.16500 119244.000000
2452 19677 1 0.16500 119244.000000
2452 24528 1 0.16500 119244.000000
2453 11808 1 0.16500 119244.000000
2453 12270 1 0.16500 119244.000000
2454 11808 1 0.16500 119244.000000
2454 12394 1 0.16500 119244.000000
2455 11808 1 0.16500 119244.000000
2455 23913 1 0.16500 119244.000000
2456 15786 1 0.16500 119244.000000
2456 19689 1 0.16500 119244.000000
2457 15847 1 0.16500 119244.000000
2457 19689 1 0.16500 119244.000000
2458 11809 1 0.16500 119244.000000
2458 14397 1 0.16500 119244.000000
2459 11809 1 0.16500 119244.000000
2459 14937 1 0.16500 119244.000000
2460 11809 1 0.16500 119244.000000
2460 12075 1 0.16500 119244.000000
2461 11809 1 0.16500 119244.000000
2461 15903 1 0.16500 119244.000000
2462 15902 1 0.16500 119244.000000
2462 19701 1 0.16500 119244.000000
2463 12281 1 0.16500 119244.000000
2463 19701 1 0.16500 119244.000000
2464 11810 1 0.16500 119244.000000
2464 13273 1 0.16500 119244.000000
2465 11810 1 0.16500 119244.000000
2465 13589 1 0.16500 119244.000000
2466 11810 1 0.16500 119244.000000
2466 16054 1 0.16500 119244.000000
2467 11810 1 0.16500 119244.000000
2467 13365 1 0.16500 119244.000000
2468 11811 1 0.16500 119244.000000
2468 11825 1 0.16500 119244.000000
2469 11811 1 0.16500 119244.000000
2469 23946 1 0.16500 119244.000000
2470 11811 1 0.16500 119244.000000
2470 13147 1 0.16500 119244.000000
2471 11811 1 0.16500 119244.000000
2471 14641 1 0.16500 119244.000000
2472 11812 1 0.16500 119244.000000
2472 14914 1 0.16500 119244.000000
2473 11812 1 0.16500 119244.000000
2473 14154 1 0.16500 119244.000000
2474 11812 1 0.16500 119244.000000
2474 14838 1 0.16500 119244.000000
2475 11812 1 0.16500 119244.000000
2475 12677 1 0.16500 119244.000000
2476 11813 1 0.16500 119244.000000
2476 15289 1 0.16500 119244.000000
2477 11813 1 0.16500 119244.000000
2477 16064 1 0.16500 119244.000000
2478 11813 1 0.16500 119244.000000
2478 15080 1 0.16500 119244.000000
2479 12173 1 0.16500 119244.000000
2479 16064 1 0.16500 119244.000000
2480 11814 1 0.16500 119244.000000
2480 12754 1 0.16500 119244.000000
2481 11814 1 0.16500 119244.000000
2481 15864 1 0.16500 119244.000000
2482 11814 1 0.16500 119244.000000
2482 12446 1 0.16500 119244.000000
2483 12356 1 0.16500 119244.000000
2483 19713 1 0.16500 119244.000000
2484 13618 1 0.16500 119244.000000
2484 19713 1 0.16500 119244.000000
2485 14313 1 0.16500 119244.000000
2485 19713 1 0.16500 119244.000000
2486 11815 1 0.16500 119244.000000
2486 15199 1 0.16500 119244.000000
2487 11815 1 0.16500 119244.000000
2487 12359 1 0.16500 119244.000000
2488 11815 1 0.16500 119244.000000
2488 11950 1 0.16500 119244.000000
2489 11815 1 0.16500 119244.000000
2489 14080 1 0.16500 119244.000000
2490 23886 1 0.16500 119244.000000
2490 24345 1 0.16500 119244.000000
2491 14719 1 0.16500 119244.000000
2491 15408 1 0.16500 119244.000000
2492 14719 1 0.16500 119244.000000
2492 23886 1 0.16500 119244.000000
2493 19725 1 0.16500 119244.000000
2493 24324 1 0.16500 119244.000000
2494 17029 1 0.16500 119244.000000
2494 19725 1 0.16500 119244.000000
2495 19725 1 0.16500 119244.000000
2495 22269 1 0.16500 119244.000000
2496 11816 1 0.16500 119244.000000
2496 11850 1 0.16500 119244.000000
2497 11816 1 0.16500 119244.000000
2497 12429 1 0.16500 119244.000000
2498 11816 1 0.16500 119244.000000
2498 17603 1 0.16500 119244.000000
2499 11816 1 0.16500 119244.000000
2499 23991 1 0.16500 119244.000000
2500 19737 1 0.16500 119244.000000
2500 24498 1 0.16500 119244.000000
2501 13357 1 0.16500 119244.000000
2501 19737 1 0.16500 119244.000000
2502 11817 1 0.16500 119244.000000
2502 14585 1 0.16500 119244.000000
2503 11817 1 0.16500 119244.000000
2503 14138 1 0.16500 119244.000000
2504 11817 1 0.16500 119244.000000
2504 11954 1 0.16500 119244.000000
2505 14085 1 0.16500 119244.000000
2505 19749 1 0.16500 119244.000000
2506 19749 1 0.16500 119244.000000
2506 19881 1 0.16500 119244.000000
2507 14085 1 0.16500 119244.000000
2507 15419 1 0.16500 119244.000000
2508 11818 1 0.16500 119244.000000
2508 14237 1 0.16500 119244.000000
2509 11818 1 0.16500 119244.000000
2509 15281 1 0.16500 119244.000000
2510 11818 1 0.16500 119244.000000
2510 13141 1 0.16500 119244.000000
2511 11818 1 0.16500 119244.000000
2511 15983 1 0.16500 119244.000000
2512 11819 1 0.16500 119244.000000
2512 13799 1 0.16500 119244.000000
2513 11819 1 0.16500 119244.000000
2513 12067 1 0.16500 119244.000000
2514 11819 1 0.16500 119244.000000
2514 12620 1 0.16500 119244.000000
2515 11819 1 0.16500 119244.000000
2515 12994 1 0.16500 119244.000000
2516 11820 1 0.16500 119244.000000
2516 15360 1 0.16500 119244.000000
2517 11820 1 0.16500 119244.000000
2517 20997 1 0.16500 119244.000000
2518 11820 1 0.16500 119244.000000
2518 15669 1 0.16500 119244.000000
2519 11820 1 0.16500 119244.000000
2519 15576 1 0.16500 119244.000000
2520 11821 1 0.16500 119244.000000
2520 15985 1 0.16500 119244.000000
2521 11821 1 0.16500 119244.000000
2521 13716 1 0.16500 119244.000000
2522 11821 1 0.16500 119244.000000
2522 15822 1 0.16500 119244.000000
2523 11821 1 0.16500 119244.000000
2523 15493 1 0.16500 119244.000000
2524 11822 1 0.16500 119244.000000
2524 12155 1 0.16500 119244.000000
2525 11822 1 0.16500 119244.000000
2525 14072 1 0.16500 119244.000000
2526 11822 1 0.16500 119244.000000
2526 12213 1 0.16500 119244.000000
2527 11822 1 0.16500 119244.000000
2527 12641 1 0.16500 119244.000000
2528 11823 1 0.16500 119244.000000
2528 14844 1 0.16500 119244.000000
2529 11823 1 0.16500 119244.000000
2529 12338 1 0.16500 119244.000000
2530 11823 1 0.16500 119244.000000
2530 13806 1 0.16500 119244.000000
2531 11823 1 0.16500 119244.000000
2531 12232 1 0.16500 119244.000000
2532 11824 1 0.16500 119244.000000
2532 14803 1 0.16500 119244.000000
2533 11824 1 0.16500 119244.000000
2533 14202 1 0.16500 119244.000000
2534 11824 1 0.16500 119244.000000
2534 13960 1 0.16500 119244.000000
2535 11824 1 0.16500 119244.000000
2535 14791 1 0.16500 119244.000000
2536 11825 1 0.16500 119244.000000
2536 15655 1 0.16500 119244.000000
2537 11825 1 0.16500 119244.000000
2537 15322 1 0.16500 119244.000000
2538 11825 1 0.16500 119244.000000
2538 16021 1 0.16500 119244.000000
2539 11826 1 0.16500 119244.000000
2539 15740 1 0.16500 119244.000000
2540 11826 1 0.16500 119244.000000
2540 16525 1 0.16500 119244.000000
2541 11826 1 0.16500 119244.000000
2541 13343 1 0.16500 119244.000000
2542 11827 1 0.16500 119244.000000
2542 12403 1 0.16500 119244.000000
2543 11827 1 0.16500 119244.000000
2543 14972 1 0.16500 119244.000000
2544 11827 1 0.16500 119244.000000
2544 15046 1 0.16500 119244.000000
2545 11828 1 0.16500 119244.000000
2545 14101 1 0.16500 119244.000000
2546 11828 1 0.16500 119244.000000
2546 15500 1 0.16500 119244.000000
2547 11828 1 0.16500 119244.000000
2547 13331 1 0.16500 119244.000000
2548 11828 1 0.16500 119244.000000
2548 15378 1 0.16500 119244.000000
2549 11829 1 0.16500 119244.000000
2549 14492 1 0.16500 119244.000000
2550 11829 1 0.16500 119244.000000
2550 11914 1 0.16500 119244.000000
2551 11829 1 0.16500 119244.000000
2551 13179 1 0.16500 119244.000000
2552 11829 1 0.16500 119244.000000
2552 14725 1 0.16500 119244.000000
2553 11830 1 0.16500 119244.000000
2553 13065 1 0.16500 119244.000000
2554 11830 1 0.16500 119244.000000
2554 13114 1 0.16500 119244.000000
2555 11830 1 0.16500 119244.000000
2555 14662 1 0.16500 119244.000000
2556 11830 1 0.16500 119244.000000
2556 16124 1 0.16500 119244.000000
2557 15971 1 0.16500 119244.000000
2557 22077 1 0.16500 119244.000000
2558 15298 1 0.16500 119244.000000
2558 19761 1 0.16500 119244.000000
2559 19761 1 0.16500 119244.000000
2559 19869 1 0.16500 119244.000000
2560 19761 1 0.16500 119244.000000
2560 22077 1 0.16500 119244.000000
2561 11831 1 0.16500 119244.000000
2561 12414 1 0.16500 119244.000000
2562 11831 1 0.16500 119244.000000
2562 13334 1 0.16500 119244.000000
2563 11831 1 0.16500 119244.000000
2563 13017 1 0.16500 119244.000000
2564 11832 1 0.16500 119244.000000
2564 15803 1 0.16500 119244.000000
2565 11832 1 0.16500 119244.000000
2565 12439 1 0.16500 119244.000000
2566 11832 1 0.16500 119244.000000
2566 14590 1 0.16500 119244.000000
2567 11833 1 0.16500 119244.000000
2567 13270 1 0.16500 119244.000000
2568 11833 1 0.16500 119244.000000
2568 24201 1 0.16500 119244.000000
2569 11833 1 0.16500 119244.000000
2569 24294 1 0.16500 119244.000000
2570 11833 1 0.16500 119244.000000
2570 14272 1 0.16500 119244.000000
2571 11834 1 0.16500 119244.000000
2571 15283 1 0.16500 119244.000000
2572 11834 1 0.16500 119244.000000
2572 12154 1 0.16500 119244.000000
2573 12154 1 0.16500 119244.000000
2573 14744 1 0.16500 119244.000000
2574 11403 1 0.16500 119244.000000
2574 11835 1 0.16500 119244.000000
2575 11835 1 0.16500 119244.000000
2575 13101 1 0.16500 119244.000000
2576 11835 1 0.16500 119244.000000
2576 13503 1 0.16500 119244.000000
2577 11835 1 0.16500 119244.000000
2577 12681 1 0.16500 119244.000000
2578 11836 1 0.16500 119244.000000
2578 14861 1 0.16500 119244.000000
2579 11836 1 0.16500 119244.000000
2579 13983 1 0.16500 119244.000000
2580 11836 1 0.16500 119244.000000
2580 13360 1 0.16500 119244.000000
2581 13585 1 0.16500 119244.000000
2581 19773 1 0.16500 119244.000000
2582 14735 1 0.16500 119244.000000
2582 19773 1 0.16500 119244.000000
2583 11868 1 0.16500 119244.000000
2583 14931 1 0.16500 119244.000000
2584 11837 1 0.16500 119244.000000
2584 20325 1 0.16500 119244.000000
2585 11837 1 0.16500 119244.000000
2585 14931 1 0.16500 119244.000000
2586 11837 1 0.16500 119244.000000
2586 12806 1 0.16500 119244.000000
2587 19785 1 0.16500 119244.000000
2587 23049 1 0.16500 119244.000000
2588 15128 1 0.16500 119244.000000
2588 19785 1 0.16500 119244.000000
2589 11838 1 0.16500 119244.000000
2589 13328 1 0.16500 119244.000000
2590 11838 1 0.16500 119244.000000
2590 12280 1 0.16500 119244.000000
2591 11838 1 0.16500 119244.000000
2591 17813 1 0.16500 119244.000000
2592 11839 1 0.16500 119244.000000
2592 12566 1 0.16500 119244.000000
2593 11839 1 0.16500 119244.000000
2593 14162 1 0.16500 119244.000000
2594 11839 1 0.16500 119244.000000
2594 12431 1 0.16500 119244.000000
2595 11840 1 0.16500 119244.000000
2595 16092 1 0.16500 119244.000000
2596 11840 1 0.16500 119244.000000
2596 14447 1 0.16500 119244.000000
2597 11840 1 0.16500 119244.000000
2597 11959 1 0.16500 119244.000000
2598 11841 1 0.16500 119244.000000
2598 16105 1 0.16500 119244.000000
2599 11841 1 0.16500 119244.000000
2599 15675 1 0.16500 119244.000000
2600 11841 1 0.16500 119244.000000
2600 13101 1 0.16500 119244.000000
2601 11841 1 0.16500 119244.000000
2601 12524 1 0.16500 119244.000000
2602 11842 1 0.16500 119244.000000
2602 15597 1 0.16500 119244.000000
2603 11842 1 0.16500 119244.000000
2603 14464 1 0.16500 119244.000000
2604 11843 1 0.16500 119244.000000
2604 19917 1 0.16500 119244.000000
2605 17211 1 0.16500 119244.000000
2605 19917 1 0.16500 119244.000000
2606 11844 1 0.16500 119244.000000
2606 16154 1 0.16500 119244.000000
2607 14472 1 0.16500 119244.000000
2607 16154 1 0.16500 119244.000000
2608 11844 1 0.16500 119244.000000
2608 16072 1 0.16500 119244.000000
2609 11844 1 0.16500 119244.000000
2609 15345 1 0.16500 119244.000000
2610 11845 1 0.16500 119244.000000
2610 15875 1 0.16500 119244.000000
2611 11845 1 0.16500 119244.000000
2611 12769 1 0.16500 119244.000000
2612 11845 1 0.16500 119244.000000
2612 13576 1 0.16500 119244.000000
2613 11846 1 0.16500 119244.000000
2613 12421 1 0.16500 119244.000000
2614 11846 1 0.16500 119244.000000
2614 12384 1 0.16500 119244.000000
2615 11846 1 0.16500 119244.000000
2615 12940 1 0.16500 119244.000000
2616 11847 1 0.16500 119244.000000
2616 12901 1 0.16500 119244.000000
2617 11847 1 0.16500 119244.000000
2617 13152 1 0.16500 119244.000000
2618 11847 1 0.16500 119244.000000
2618 14192 1 0.16500 119244.000000
2619 11848 1 0.16500 119244.000000
2619 16029 1 0.16500 119244.000000
2620 11848 1 0.16500 119244.000000
2620 21957 1 0.16500 119244.000000
2621 11848 1 0.16500 119244.000000
2621 15720 1 0.16500 119244.000000
2622 11848 1 0.16500 119244.000000
2622 13876 1 0.16500 119244.000000
2623 11931 1 0.16500 119244.000000
2623 19797 1 0.16500 119244.000000
2624 17869 1 0.16500 119244.000000
2624 19797 1 0.16500 119244.000000
2625 12658 1 0.16500 119244.000000
2625 13069 1 0.16500 119244.000000
2626 11849 1 0.16500 119244.000000
2626 14881 1 0.16500 119244.000000
2627 11849 1 0.16500 119244.000000
2627 13069 1 0.16500 119244.000000
2628 11849 1 0.16500 119244.000000
2628 13034 1 0.16500 119244.000000
2629 11850 1 0.16500 119244.000000
2629 15546 1 0.16500 119244.000000
2630 11850 1 0.16500 119244.000000
2630 14856 1 0.16500 119244.000000
2631 11850 1 0.16500 119244.000000
2631 12837 1 0.16500 119244.000000
2632 11851 1 0.16500 119244.000000
2632 15588 1 0.16500 119244.000000
2633 11851 1 0.16500 119244.000000
2633 21045 1 0.16500 119244.000000
2634 11851 1 0.16500 119244.000000
2634 16066 1 0.16500 119244.000000
2635 11851 1 0.16500 119244.000000
2635 15350 1 0.16500 119244.000000
2636 11852 1 0.16500 119244.000000
2636 15418 1 0.16500 119244.000000
2637 11852 1 0.16500 119244.000000
2637 13138 1 0.16500 119244.000000
2638 11852 1 0.16500 119244.000000
2638 14972 1 0.16500 119244.000000
2639 11852 1 0.16500 119244.000000
2639 15606 1 0.16500 119244.000000
2640 11853 1 0.16500 119244.000000
2640 13091 1 0.16500 119244.000000
2641 11853 1 0.16500 119244.000000
2641 15409 1 0.16500 119244.000000
2642 11853 1 0.16500 119244.000000
2642 13514 1 0.16500 119244.000000
2643 11853 1 0.16500 119244.000000
2643 13052 1 0.16500 119244.000000
2644 11854 1 0.16500 119244.000000
2644 16199 1 0.16500 119244.000000
2645 11854 1 0.16500 119244.000000
2645 13131 1 0.16500 119244.000000
2646 11854 1 0.16500 119244.000000
2646 12448 1 0.16500 119244.000000
2647 11855 1 0.16500 119244.000000
2647 13169 1 0.16500 119244.000000
2648 11855 1 0.16500 119244.000000
2648 16011 1 0.16500 119244.000000
2649 15374 1 0.16500 119244.000000
2649 16011 1 0.16500 119244.000000
2650 11855 1 0.16500 119244.000000
2650 13992 1 0.16500 119244.000000
2651 19809 1 0.16500 119244.000000
2651 22629 1 0.16500 119244.000000
2652 19809 1 0.16500 119244.000000
2652 24612 1 0.16500 119244.000000
2653 16148 1 0.16500 119244.000000
2653 19809 1 0.16500 119244.000000
2654 11856 1 0.16500 119244.000000
2654 13287 1 0.16500 119244.000000
2655 11856 1 0.16500 119244.000000
2655 13881 1 0.16500 119244.000000
2656 11856 1 0.16500 119244.000000
2656 14512 1 0.16500 119244.000000
2657 11856 1 0.16500 119244.000000
2657 16101 1 0.16500 119244.000000
2658 11857 1 0.16500 119244.000000
2658 14570 1 0.16500 119244.000000
2659 11857 1 0.16500 119244.000000
2659 11983 1 0.16500 119244.000000
2660 11858 1 0.16500 119244.000000
2660 13156 1 0.16500 119244.000000
2661 11858 1 0.16500 119244.000000
2661 13127 1 0.16500 119244.000000
2662 11858 1 0.16500 119244.000000
2662 13417 1 0.16500 119244.000000
2663 11858 1 0.16500 119244.000000
2663 16195 1 0.16500 119244.000000
2664 11859 1 0.16500 119244.000000
2664 14172 1 0.16500 119244.000000
2665 11859 1 0.16500 119244.000000
2665 13602 1 0.16500 119244.000000
2666 11860 1 0.16500 119244.000000
2666 14003 1 0.16500 119244.000000
2667 11860 1 0.16500 119244.000000
2667 24084 1 0.16500 119244.000000
2668 11861 1 0.16500 119244.000000
2668 14237 1 0.16500 119244.000000
2669 11861 1 0.16500 119244.000000
2669 14153 1 0.16500 119244.000000
2670 11861 1 0.16500 119244.000000
2670 12649 1 0.16500 119244.000000
2671 11861 1 0.16500 119244.000000
2671 12070 1 0.16500 119244.000000
2672 11862 1 0.16500 119244.000000
2672 12986 1 0.16500 119244.000000
2673 11862 1 0.16500 119244.000000
2673 13154 1 0.16500 119244.000000
2674 11862 1 0.16500 119244.000000
2674 13889 1 0.16500 119244.000000
2675 11862 1 0.16500 119244.000000
2675 11971 1 0.16500 119244.000000
2676 11863 1 0.16500 119244.000000
2676 12480 1 0.16500 119244.000000
2677 11863 1 0.16500 119244.000000
2677 14754 1 0.16500 119244.000000
2678 11863 1 0.16500 119244.000000
2678 15892 1 0.16500 119244.000000
2679 11863 1 0.16500 119244.000000
2679 13676 1 0.16500 119244.000000
2680 11864 1 0.16500 119244.000000
2680 13171 1 0.16500 119244.000000
2681 11864 1 0.16500 119244.000000
2681 13250 1 0.16500 119244.000000
2682 11864 1 0.16500 119244.000000
2682 15405 1 0.16500 119244.000000
2683 14377 1 0.16500 119244.000000
2683 15405 1 0.16500 119244.000000
2684 11865 1 0.16500 119244.000000
2684 20505 1 0.16500 119244.000000
2685 11865 1 0.16500 119244.000000
2685 12423 1 0.16500 119244.000000
2686 11865 1 0.16500 119244.000000
2686 12979 1 0.16500 119244.000000
2687 11865 1 0.16500 119244.000000
2687 15780 1 0.16500 119244.000000
2688 11866 1 0.16500 119244.000000
2688 15372 1 0.16500 119244.000000
2689 11866 1 0.16500 119244.000000
2689 15404 1 0.16500 119244.000000
2690 11866 1 0.16500 119244.000000
2690 22629 1 0.16500 119244.000000
2691 11866 1 0.16500 119244.000000
2691 13627 1 0.16500 119244.000000
2692 11867 1 0.16500 119244.000000
2692 15001 1 0.16500 119244.000000
2693 11867 1 0.16500 119244.000000
2693 13963 1 0.16500 119244.000000
2694 11867 1 0.16500 119244.000000
2694 15934 1 0.16500 119244.000000
2695 11867 1 0.16500 119244.000000
2695 12632 1 0.16500 119244.000000
2696 13009 1 0.16500 119244.000000
2696 19821 1 0.16500 119244.000000
2697 12145 1 0.16500 119244.000000
2697 19821 1 0.16500 119244.000000
2698 14615 1 0.16500 119244.000000
2698 19821 1 0.16500 119244.000000
2699 11868 1 0.16500 119244.000000
2699 24228 1 0.16500 119244.000000
2700 11868 1 0.16500 119244.000000
2700 24048 1 0.16500 119244.000000
2701 11868 1 0.16500 119244.000000
2701 13308 1 0.16500 119244.000000
2702 11869 1 0.16500 119244.000000
2702 15371 1 0.16500 119244.000000
2703 11869 1 0.16500 119244.000000
2703 14029 1 0.16500 119244.000000
2704 11869 1 0.16500 119244.000000
2704 13289 1 0.16500 119244.000000
2705 11869 1 0.16500 119244.000000
2705 13984 1 0.16500 119244.000000
2706 11870 1 0.16500 119244.000000
2706 13012 1 0.16500 119244.000000
2707 11870 1 0.16500 119244.000000
2707 12021 1 0.16500 119244.000000
2708 11870 1 0.16500 119244.000000
2708 15847 1 0.16500 119244.000000
2709 11871 1 0.16500 119244.000000
2709 12988 1 0.16500 119244.000000
2710 11871 1 0.16500 119244.000000
2710 15961 1 0.16500 119244.000000
2711 11871 1 0.16500 119244.000000
2711 15991 1 0.16500 119244.000000
2712 11871 1 0.16500 119244.000000
2712 12875 1 0.16500 119244.000000
2713 11872 1 0.16500 119244.000000
2713 13545 1 0.16500 119244.000000
2714 11872 1 0.16500 119244.000000
2714 13310 1 0.16500 119244.000000
2715 11872 1 0.16500 119244.000000
2715 12248 1 0.16500 119244.000000
2716 11872 1 0.16500 119244.000000
2716 21597 1 0.16500 119244.000000
2717 11873 1 0.16500 119244.000000
2717 16100 1 0.16500 119244.000000
2718 11873 1 0.16500 119244.000000
2718 14354 1 0.16500 119244.000000
2719 11873 1 0.16500 119244.000000
2719 12924 1 0.16500 119244.000000
2720 11873 1 0.16500 119244.000000
2720 14619 1 0.16500 119244.000000
2721 11874 1 0.16500 119244.000000
2721 16205 1 0.16500 119244.000000
2722 11874 1 0.16500 119244.000000
2722 14223 1 0.16500 119244.000000
2723 11874 1 0.16500 119244.000000
2723 12177 1 0.16500 119244.000000
2724 11874 1 0.16500 119244.000000
2724 15732 1 0.16500 119244.000000
2725 11875 1 0.16500 119244.000000
2725 16134 1 0.16500 119244.000000
2726 11875 1 0.16500 119244.000000
2726 13400 1 0.16500 119244.000000
2727 11875 1 0.16500 119244.000000
2727 14969 1 0.16500 119244.000000
2728 11875 1 0.16500 119244.000000
2728 13146 1 0.16500 119244.000000
2729 15257 1 0.16500 119244.000000
2729 19833 1 0.16500 119244.000000
2730 19833 1 0.16500 119244.000000
2730 22113 1 0.16500 119244.000000
2731 19833 1 0.16500 119244.000000
2731 22161 1 0.16500 119244.000000
2732 11876 1 0.16500 119244.000000
2732 20841 1 0.16500 119244.000000
2733 11876 1 0.16500 119244.000000
2733 17113 1 0.16500 119244.000000
2734 11876 1 0.16500 119244.000000
2734 14333 1 0.16500 119244.000000
2735 11877 1 0.16500 119244.000000
2735 12917 1 0.16500 119244.000000
2736 11877 1 0.16500 119244.000000
2736 13285 1 0.16500 119244.000000
2737 11877 1 0.16500 119244.000000
2737 15624 1 0.16500 119244.000000
2738 11878 1 0.16500 119244.000000
2738 12079 1 0.16500 119244.000000
2739 11878 1 0.16500 119244.000000
2739 13395 1 0.16500 119244.000000
2740 11878 1 0.16500 119244.000000
2740 14530 1 0.16500 119244.000000
2741 11878 1 0.16500 119244.000000
2741 14496 1 0.16500 119244.000000
2742 11879 1 0.16500 119244.000000
2742 15699 1 0.16500 119244.000000
2743 11879 1 0.16500 119244.000000
2743 16165 1 0.16500 119244.000000
2744 11879 1 0.16500 119244.000000
2744 15360 1 0.16500 119244.000000
2745 11879 1 0.16500 119244.000000
2745 12414 1 0.16500 119244.000000
2746 11880 1 0.16500 119244.000000
2746 22713 1 0.16500 119244.000000
2747 11880 1 0.16500 119244.000000
2747 24072 1 0.16500 119244.000000
2748 11880 1 0.16500 119244.000000
2748 16151 1 0.16500 119244.000000
2749 11881 1 0.16500 119244.000000
2749 12790 1 0.16500 119244.000000
2750 11881 1 0.16500 119244.000000
2750 14124 1 0.16500 119244.000000
2751 11881 1 0.16500 119244.000000
2751 15417 1 0.16500 119244.000000
2752 11881 1 0.16500 119244.000000
2752 12473 1 0.16500 119244.000000
2753 11882 1 0.16500 119244.000000
2753 13831 1 0.16500 119244.000000
2754 14318 1 0.16500 119244.000000
2754 15342 1 0.16500 119244.000000
2755 11882 1 0.16500 119244.000000
2755 14363 1 0.16500 119244.000000
2756 11882 1 0.16500 119244.000000
2756 14318 1 0.16500 119244.000000
2757 11883 1 0.16500 119244.000000
2757 12264 1 0.16500 119244.000000
2758 11883 1 0.16500 119244.000000
2758 12882 1 0.16500 119244.000000
2759 11883 1 0.16500 119244.000000
2759 13373 1 0.16500 119244.000000
2760 11883 1 0.16500 119244.000000
2760 13150 1 0.16500 119244.000000
2761 11884 1 0.16500 119244.000000
2761 14907 1 0.16500 119244.000000
2762 11884 1 0.16500 119244.000000
2762 14297 1 0.16500 119244.000000
2763 11884 1 0.16500 119244.000000
2763 13913 1 0.16500 119244.000000
2764 11885 1 0.16500 119244.000000
2764 12604 1 0.16500 119244.000000
2765 11885 1 0.16500 119244.000000
2765 15133 1 0.16500 119244.000000
2766 11885 1 0.16500 119244.000000
2766 13759 1 0.16500 119244.000000
2767 11885 1 0.16500 119244.000000
2767 14204 1 0.16500 119244.000000
2768 11886 1 0.16500 119244.000000
2768 15552 1 0.16500 119244.000000
2769 11886 1 0.16500 119244.000000
2769 15479 1 0.16500 119244.000000
2770 11886 1 0.16500 119244.000000
2770 11928 1 0.16500 119244.000000
2771 11887 1 0.16500 119244.000000
2771 16143 1 0.16500 119244.000000
2772 13437 1 0.16500 119244.000000
2772 13894 1 0.16500 119244.000000
2773 11887 1 0.16500 119244.000000
2773 13437 1 0.16500 119244.000000
2774 11887 1 0.16500 119244.000000
2774 14686 1 0.16500 119244.000000
2775 14675 1 0.16500 119244.000000
2775 19845 1 0.16500 119244.000000
2776 15186 1 0.16500 119244.000000
2776 19845 1 0.16500 119244.000000
2777 11888 1 0.16500 119244.000000
2777 15182 1 0.16500 119244.000000
2778 11888 1 0.16500 119244.000000
2778 12341 1 0.16500 119244.000000
2779 11888 1 0.16500 119244.000000
2779 15369 1 0.16500 119244.000000
2780 11889 1 0.16500 119244.000000
2780 24734 1 0.16500 119244.000000
2781 11889 1 0.16500 119244.000000
2781 13109 1 0.16500 119244.000000
2782 11889 1 0.16500 119244.000000
2782 14119 1 0.16500 119244.000000
2783 11889 1 0.16500 119244.000000
2783 14211 1 0.16500 119244.000000
2784 11890 1 0.16500 119244.000000
2784 15310 1 0.16500 119244.000000
2785 11890 1 0.16500 119244.000000
2785 13987 1 0.16500 119244.000000
2786 11890 1 0.16500 119244.000000
2786 13908 1 0.16500 119244.000000
2787 11890 1 0.16500 119244.000000
2787 13031 1 0.16500 119244.000000
2788 11891 1 0.16500 119244.000000
2788 13700 1 0.16500 119244.000000
2789 11891 1 0.16500 119244.000000
2789 12593 1 0.16500 119244.000000
2790 11891 1 0.16500 119244.000000
2790 15471 1 0.16500 119244.000000
2791 11892 1 0.16500 119244.000000
2791 12458 1 0.16500 119244.000000
2792 11892 1 0.16500 119244.000000
2792 13746 1 0.16500 119244.000000
2793 12458 1 0.16500 119244.000000
2793 12761 1 0.16500 119244.000000
2794 11893 1 0.16500 119244.000000
2794 16207 1 0.16500 119244.000000
2795 11893 1 0.16500 119244.000000
2795 15159 1 0.16500 119244.000000
2796 11893 1 0.16500 119244.000000
2796 14633 1 0.16500 119244.000000
2797 13717 1 0.16500 119244.000000
2797 15159 1 0.16500 119244.000000
2798 11894 1 0.16500 119244.000000
2798 15834 1 0.16500 119244.000000
2799 11894 1 0.16500 119244.000000
2799 15471 1 0.16500 119244.000000
2800 11895 1 0.16500 119244.000000
2800 14000 1 0.16500 119244.000000
2801 11895 1 0.16500 119244.000000
2801 14681 1 0.16500 119244.000000
2802 12744 1 0.16500 119244.000000
2802 14000 1 0.16500 119244.000000
2803 11896 1 0.16500 119244.000000
2803 14222 1 0.16500 119244.000000
2804 11896 1 0.16500 119244.000000
2804 14513 1 0.16500 119244.000000
2805 11896 1 0.16500 119244.000000
2805 14192 1 0.16500 119244.000000
2806 11897 1 0.16500 119244.000000
2806 12546 1 0.16500 119244.000000
2807 11897 1 0.16500 119244.000000
2807 13958 1 0.16500 119244.000000
2808 11897 1 0.16500 119244.000000
2808 15390 1 0.16500 119244.000000
2809 11897 1 0.16500 119244.000000
2809 12848 1 0.16500 119244.000000
2810 11898 1 0.16500 119244.000000
2810 13844 1 0.16500 119244.000000
2811 11898 1 0.16500 119244.000000
2811 14036 1 0.16500 119244.000000
2812 11898 1 0.16500 119244.000000
2812 15137 1 0.16500 119244.000000
2813 11898 1 0.16500 119244.000000
2813 14724 1 0.16500 119244.000000
2814 11899 1 0.16500 119244.000000
2814 14552 1 0.16500 119244.000000
2815 13535 1 0.16500 119244.000000
2815 13594 1 0.16500 119244.000000
2816 11899 1 0.16500 119244.000000
2816 15562 1 0.16500 119244.000000
2817 11323 1 0.16500 119244.000000
2817 13535 1 0.16500 119244.000000
2818 11900 1 0.16500 119244.000000
2818 12158 1 0.16500 119244.000000
2819 11900 1 0.16500 119244.000000
2819 13674 1 0.16500 119244.000000
2820 11900 1 0.16500 119244.000000
2820 15695 1 0.16500 119244.000000
2821 11900 1 0.16500 119244.000000
2821 13335 1 0.16500 119244.000000
2822 11901 1 0.16500 119244.000000
2822 15551 1 0.16500 119244.000000
2823 11901 1 0.16500 119244.000000
2823 16193 1 0.16500 119244.000000
2824 11901 1 0.16500 119244.000000
2824 15766 1 0.16500 119244.000000
2825 11902 1 0.16500 119244.000000
2825 15277 1 0.16500 119244.000000
2826 11902 1 0.16500 119244.000000
2826 16103 1 0.16500 119244.000000
2827 11902 1 0.16500 119244.000000
2827 14076 1 0.16500 119244.000000
2828 11902 1 0.16500 119244.000000
2828 16067 1 0.16500 119244.000000
2829 11903 1 0.16500 119244.000000
2829 15890 1 0.16500 119244.000000
2830 11903 1 0.16500 119244.000000
2830 15723 1 0.16500 119244.000000
2831 11903 1 0.16500 119244.000000
2831 13702 1 0.16500 119244.000000
2832 11904 1 0.16500 119244.000000
2832 12067 1 0.16500 119244.000000
2833 11904 1 0.16500 119244.000000
2833 12426 1 0.16500 119244.000000
2834 11905 1 0.16500 119244.000000
2834 11930 1 0.16500 119244.000000
2835 11905 1 0.16500 119244.000000
2835 14324 1 0.16500 119244.000000
2836 11905 1 0.16500 119244.000000
2836 12316 1 0.16500 119244.000000
2837 11906 1 0.16500 119244.000000
2837 15104 1 0.16500 119244.000000
2838 11906 1 0.16500 119244.000000
2838 15252 1 0.16500 119244.000000
2839 11906 1 0.16500 119244.000000
2839 18079 1 0.16500 119244.000000
2840 11907 1 0.16500 119244.000000
2840 12763 1 0.16500 119244.000000
2841 11907 1 0.16500 119244.000000
2841 14393 1 0.16500 119244.000000
2842 11907 1 0.16500 119244.000000
2842 12753 1 0.16500 119244.000000
2843 11907 1 0.16500 119244.000000
2843 12394 1 0.16500 119244.000000
2844 11908 1 0.16500 119244.000000
2844 13881 1 0.16500 119244.000000
2845 11908 1 0.16500 119244.000000
2845 12123 1 0.16500 119244.000000
2846 11908 1 0.16500 119244.000000
2846 14336 1 0.16500 119244.000000
2847 11908 1 0.16500 119244.000000
2847 13262 1 0.16500 119244.000000
2848 11909 1 0.16500 119244.000000
2848 13625 1 0.16500 119244.000000
2849 11909 1 0.16500 119244.000000
2849 14891 1 0.16500 119244.000000
2850 11909 1 0.16500 119244.000000
2850 12097 1 0.16500 119244.000000
2851 11910 1 0.16500 119244.000000
2851 12622 1 0.16500 119244.000000
2852 11910 1 0.16500 119244.000000
2852 12562 1 0.16500 119244.000000
2853 11910 1 0.16500 119244.000000
2853 13848 1 0.16500 119244.000000
2854 11911 1 0.16500 119244.000000
2854 15573 1 0.16500 119244.000000
2855 11911 1 0.16500 119244.000000
2855 13577 1 0.16500 119244.000000
2856 11911 1 0.16500 119244.000000
2856 13851 1 0.16500 119244.000000
2857 12133 1 0.16500 119244.000000
2857 19857 1 0.16500 119244.000000
2858 11912 1 0.16500 119244.000000
2858 13428 1 0.16500 119244.000000
2859 11912 1 0.16500 119244.000000
2859 13205 1 0.16500 119244.000000
2860 11912 1 0.16500 119244.000000
2860 15011 1 0.16500 119244.000000
2861 13428 1 0.16500 119244.000000
2861 14900 1 0.16500 119244.000000
2862 11913 1 0.16500 119244.000000
2862 13394 1 0.16500 119244.000000
2863 11913 1 0.16500 119244.000000
2863 15988 1 0.16500 119244.000000
2864 11914 1 0.16500 119244.000000
2864 12396 1 0.16500 119244.000000
2865 11914 1 0.16500 119244.000000
2865 12470 1 0.16500 119244.000000
2866 12470 1 0.16500 119244.000000
2866 15193 1 0.16500 119244.000000
2867 11915 1 0.16500 119244.000000
2867 14914 1 0.16500 119244.000000
2868 11915 1 0.16500 119244.000000
2868 15915 1 0.16500 119244.000000
2869 11915 1 0.16500 119244.000000
2869 14090 1 0.16500 119244.000000
2870 11915 1 0.16500 119244.000000
2870 13190 1 0.16500 119244.000000
2871 11916 1 0.16500 119244.000000
2871 15429 1 0.16500 119244.000000
2872 11916 1 0.16500 119244.000000
2872 12670 1 0.16500 119244.000000
2873 11916 1 0.16500 119244.000000
2873 13948 1 0.16500 119244.000000
2874 11917 1 0.16500 119244.000000
2874 13872 1 0.16500 119244.000000
2875 11917 1 0.16500 119244.000000
2875 13397 1 0.16500 119244.000000
2876 11917 1 0.16500 119244.000000
2876 13990 1 0.16500 119244.000000
2877 11918 1 0.16500 119244.000000
2877 13556 1 0.16500 119244.000000
2878 11918 1 0.16500 119244.000000
2878 11980 1 0.16500 119244.000000
2879 11918 1 0.16500 119244.000000
2879 12371 1 0.16500 119244.000000
2880 11919 1 0.16500 119244.000000
2880 12007 1 0.16500 119244.000000
2881 11919 1 0.16500 119244.000000
2881 14079 1 0.16500 119244.000000
2882 11919 1 0.16500 119244.000000
2882 12714 1 0.16500 119244.000000
2883 11919 1 0.16500 119244.000000
2883 12517 1 0.16500 119244.000000
2884 19869 1 0.16500 119244.000000
2884 24303 1 0.16500 119244.000000
2885 13231 1 0.16500 119244.000000
2885 19869 1 0.16500 119244.000000
2886 11920 1 0.16500 119244.000000
2886 15251 1 0.16500 119244.000000
2887 11920 1 0.16500 119244.000000
2887 16169 1 0.16500 119244.000000
2888 11920 1 0.16500 119244.000000
2888 13661 1 0.16500 119244.000000
2889 11921 1 0.16500 119244.000000
2889 14239 1 0.16500 119244.000000
2890 11921 1 0.16500 119244.000000
2890 24054 1 0.16500 119244.000000
2891 11921 1 0.16500 119244.000000
2891 14437 1 0.16500 119244.000000
2892 11922 1 0.16500 119244.000000
2892 12963 1 0.16500 119244.000000
2893 11922 1 0.16500 119244.000000
2893 24699 1 0.16500 119244.000000
2894 12202 1 0.16500 119244.000000
2894 14294 1 0.16500 119244.000000
2895 11922 1 0.16500 119244.000000
2895 14294 1 0.16500 119244.000000
2896 11923 1 0.16500 119244.000000
2896 12857 1 0.16500 119244.000000
2897 11923 1 0.16500 119244.000000
2897 12890 1 0.16500 119244.000000
2898 11923 1 0.16500 119244.000000
2898 14657 1 0.16500 119244.000000
2899 11923 1 0.16500 119244.000000
2899 22893 1 0.16500 119244.000000
2900 11924 1 0.16500 119244.000000
2900 14713 1 0.16500 119244.000000
2901 11924 1 0.16500 119244.000000
2901 13250 1 0.16500 119244.000000
2902 11924 1 0.16500 119244.000000
2902 14548 1 0.16500 119244.000000
2903 11925 1 0.16500 119244.000000
2903 12817 1 0.16500 119244.000000
2904 11925 1 0.16500 119244.000000
2904 15719 1 0.16500 119244.000000
2905 11925 1 0.16500 119244.000000
2905 15310 1 0.16500 119244.000000
2906 11926 1 0.16500 119244.000000
2906 13517 1 0.16500 119244.000000
2907 13149 1 0.16500 119244.000000
2907 15776 1 0.16500 119244.000000
2908 11926 1 0.16500 119244.000000
2908 15776 1 0.16500 119244.000000
2909 11927 1 0.16500 119244.000000
2909 14792 1 0.16500 119244.000000
2910 11927 1 0.16500 119244.000000
2910 14102 1 0.16500 119244.000000
2911 11927 1 0.16500 119244.000000
2911 14112 1 0.16500 119244.000000
2912 11928 1 0.16500 119244.000000
2912 14751 1 0.16500 119244.000000
2913 11928 1 0.16500 119244.000000
2913 14615 1 0.16500 119244.000000
2914 11928 1 0.16500 119244.000000
2914 24754 1 0.16500 119244.000000
2915 11929 1 0.16500 119244.000000
2915 15768 1 0.16500 119244.000000
2916 11929 1 0.16500 119244.000000
2916 15321 1 0.16500 119244.000000
2917 11929 1 0.16500 119244.000000
2917 12388 1 0.16500 119244.000000
2918 11930 1 0.16500 119244.000000
2918 14733 1 0.16500 119244.000000
2919 11930 1 0.16500 119244.000000
2919 12045 1 0.16500 119244.000000
2920 11930 1 0.16500 119244.000000
2920 16170 1 0.16500 119244.000000
2921 19881 1 0.16500 119244.000000
2921 24498 1 0.16500 119244.000000
2922 14356 1 0.16500 119244.000000
2922 19881 1 0.16500 119244.000000
2923 11932 1 0.16500 119244.000000
2923 16197 1 0.16500 119244.000000
2924 11932 1 0.16500 119244.000000
2924 15284 1 0.16500 119244.000000
2925 11932 1 0.16500 119244.000000
2925 15998 1 0.16500 119244.000000
2926 11932 1 0.16500 119244.000000
2926 15690 1 0.16500 119244.000000
2927 11933 1 0.16500 119244.000000
2927 15452 1 0.16500 119244.000000
2928 11933 1 0.16500 119244.000000
2928 15971 1 0.16500 119244.000000
2929 11933 1 0.16500 119244.000000
2929 15791 1 0.16500 119244.000000
2930 11933 1 0.16500 119244.000000
2930 15235 1 0.16500 119244.000000
2931 11934 1 0.16500 119244.000000
2931 13845 1 0.16500 119244.000000
2932 11934 1 0.16500 119244.000000
2932 12743 1 0.16500 119244.000000
2933 11934 1 0.16500 119244.000000
2933 13395 1 0.16500 119244.000000
2934 11935 1 0.16500 119244.000000
2934 16027 1 0.16500 119244.000000
2935 11935 1 0.16500 119244.000000
2935 11983 1 0.16500 119244.000000
2936 11935 1 0.16500 119244.000000
2936 13877 1 0.16500 119244.000000
2937 11936 1 0.16500 119244.000000
2937 12555 1 0.16500 119244.000000
2938 11936 1 0.16500 119244.000000
2938 14698 1 0.16500 119244.000000
2939 11936 1 0.16500 119244.000000
2939 14676 1 0.16500 119244.000000
2940 11937 1 0.16500 119244.000000
2940 16034 1 0.16500 119244.000000
2941 11937 1 0.16500 119244.000000
2941 12246 1 0.16500 119244.000000
2942 11464 1 0.16500 119244.000000
2942 11937 1 0.16500 119244.000000
2943 12246 1 0.16500 119244.000000
2943 13852 1 0.16500 119244.000000
2944 13653 1 0.16500 119244.000000
2944 19893 1 0.16500 119244.000000
2945 14476 1 0.16500 119244.000000
2945 19893 1 0.16500 119244.000000
2946 15697 1 0.16500 119244.000000
2946 19893 1 0.16500 119244.000000
2947 11938 1 0.16500 119244.000000
2947 15209 1 0.16500 119244.000000
2948 11938 1 0.16500 119244.000000
2948 13071 1 0.16500 119244.000000
2949 11938 1 0.16500 119244.000000
2949 15361 1 0.16500 119244.000000
2950 11938 1 0.16500 119244.000000
2950 15933 1 0.16500 119244.000000
2951 15999 1 0.16500 119244.000000
2951 16086 1 0.16500 119244.000000
2952 15999 1 0.16500 119244.000000
2952 22389 1 0.16500 119244.000000
2953 11939 1 0.16500 119244.000000
2953 15999 1 0.16500 119244.000000
2954 13985 1 0.16500 119244.000000
2954 15999 1 0.16500 119244.000000
2955 11940 1 0.16500 119244.000000
2955 14668 1 0.16500 119244.000000
2956 11940 1 0.16500 119244.000000
2956 15901 1 0.16500 119244.000000
2957 11940 1 0.16500 119244.000000
2957 13623 1 0.16500 119244.000000
2958 11941 1 0.16500 119244.000000
2958 14896 1 0.16500 119244.000000
2959 11941 1 0.16500 119244.000000
2959 15262 1 0.16500 119244.000000
2960 11941 1 0.16500 119244.000000
2960 14321 1 0.16500 119244.000000
2961 11941 1 0.16500 119244.000000
2961 15543 1 0.16500 119244.000000
2962 11942 1 0.16500 119244.000000
2962 13003 1 0.16500 119244.000000
2963 11942 1 0.16500 119244.000000
2963 24510 1 0.16500 119244.000000
2964 11942 1 0.16500 119244.000000
2964 12896 1 0.16500 119244.000000
2965 11942 1 0.16500 119244.000000
2965 24249 1 0.16500 119244.000000
2966 11943 1 0.16500 119244.000000
2966 13431 1 0.16500 119244.000000
2967 11943 1 0.16500 119244.000000
2967 12931 1 0.16500 119244.000000
2968 11943 1 0.16500 119244.000000
2968 14256 1 0.16500 119244.000000
2969 11943 1 0.16500 119244.000000
2969 15469 1 0.16500 119244.000000
2970 11944 1 0.16500 119244.000000
2970 15385 1 0.16500 119244.000000
2971 11944 1 0.16500 119244.000000
2971 12455 1 0.16500 119244.000000
2972 12162 1 0.16500 119244.000000
2972 12455 1 0.16500 119244.000000
2973 11944 1 0.16500 119244.000000
2973 13765 1 0.16500 119244.000000
2974 11945 1 0.16500 119244.000000
2974 12175 1 0.16500 119244.000000
2975 11945 1 0.16500 119244.000000
2975 13047 1 0.16500 119244.000000
2976 11945 1 0.16500 119244.000000
2976 13412 1 0.16500 119244.000000
2977 11945 1 0.16500 119244.000000
2977 14110 1 0.16500 119244.000000
2978 11946 1 0.16500 119244.000000
2978 14163 1 0.16500 119244.000000
2979 11946 1 0.16500 119244.000000
2979 12832 1 0.16500 119244.000000
2980 11946 1 0.16500 119244.000000
2980 16063 1 0.16500 119244.000000
2981 11946 1 0.16500 119244.000000
2981 16002 1 0.16500 119244.000000
2982 11947 1 0.16500 119244.000000
2982 13569 1 0.16500 119244.000000
2983 11947 1 0.16500 119244.000000
2983 12862 1 0.16500 119244.000000
2984 11947 1 0.16500 119244.000000
2984 13092 1 0.16500 119244.000000
2985 11947 1 0.16500 119244.000000
2985 12557 1 0.16500 119244.000000
2986 17575 1 0.16500 119244.000000
2986 19905 1 0.16500 119244.000000
2987 14694 1 0.16500 119244.000000
2987 19905 1 0.16500 119244.000000
2988 19905 1 0.16500 119244.000000
2988 23949 1 0.16500 119244.000000
2989 11843 1 0.16500 119244.000000
2989 16090 1 0.16500 119244.000000
2990 11843 1 0.16500 119244.000000
2990 17981 1 0.16500 119244.000000
2991 14260 1 0.16500 119244.000000
2991 19917 1 0.16500 119244.000000
2992 14841 1 0.16500 119244.000000
2992 15363 1 0.16500 119244.000000
2993 12204 1 0.16500 119244.000000
2993 15363 1 0.16500 119244.000000
2994 12559 1 0.16500 119244.000000
2994 15363 1 0.16500 119244.000000
2995 15363 1 0.16500 119244.000000
2995 19929 1 0.16500 119244.000000
2996 11948 1 0.16500 119244.000000
2996 24186 1 0.16500 119244.000000
2997 11948 1 0.16500 119244.000000
2997 12540 1 0.16500 119244.000000
2998 11949 1 0.16500 119244.000000
2998 14617 1 0.16500 119244.000000
2999 11949 1 0.16500 119244.000000
2999 16097 1 0.16500 119244.000000
3000 11949 1 0.16500 119244.000000
3000 14838 1 0.16500 119244.000000
3001 11949 1 0.16500 119244.000000
3001 12451 1 0.16500 119244.000000
3002 11950 1 0.16500 119244.000000
3002 12103 1 0.16500 119244.000000
3003 11950 1 0.16500 119244.000000
3003 14482 1 0.16500 119244.000000
3004 11951 1 0.16500 119244.000000
3004 13570 1 0.16500 119244.000000
3005 11951 1 0.16500 119244.000000
3005 12775 1 0.16500 119244.000000
3006 11951 1 0.16500 119244.000000
3006 13910 1 0.16500 119244.000000
3007 11952 1 0.16500 119244.000000
3007 15835 1 0.16500 119244.000000
3008 13438 1 0.16500 119244.000000
3008 13612 1 0.16500 119244.000000
3009 11952 1 0.16500 119244.000000
3009 14150 1 0.16500 119244.000000
3010 11952 1 0.16500 119244.000000
3010 13612 1 0.16500 119244.000000
3011 11953 1 0.16500 119244.000000
3011 16198 1 0.16500 119244.000000
3012 11953 1 0.16500 119244.000000
3012 13115 1 0.16500 119244.000000
3013 11953 1 0.16500 119244.000000
3013 24809 1 0.16500 119244.000000
3014 11953 1 0.16500 119244.000000
3014 15548 1 0.16500 119244.000000
3015 11954 1 0.16500 119244.000000
3015 12473 1 0.16500 119244.000000
3016 11954 1 0.16500 119244.000000
3016 16123 1 0.16500 119244.000000
3017 11954 1 0.16500 119244.000000
3017 14028 1 0.16500 119244.000000
3018 11955 1 0.16500 119244.000000
3018 14105 1 0.16500 119244.000000
3019 11955 1 0.16500 119244.000000
3019 14624 1 0.16500 119244.000000
3020 11955 1 0.16500 119244.000000
3020 13936 1 0.16500 119244.000000
3021 11955 1 0.16500 119244.000000
3021 15687 1 0.16500 119244.000000
3022 11956 1 0.16500 119244.000000
3022 13838 1 0.16500 119244.000000
3023 11956 1 0.16500 119244.000000
3023 12064 1 0.16500 119244.000000
3024 11956 1 0.16500 119244.000000
3024 14975 1 0.16500 119244.000000
3025 11957 1 0.16500 119244.000000
3025 13631 1 0.16500 119244.000000
3026 11957 1 0.16500 119244.000000
3026 12239 1 0.16500 119244.000000
3027 11957 1 0.16500 119244.000000
3027 16005 1 0.16500 119244.000000
3028 11957 1 0.16500 119244.000000
3028 13624 1 0.16500 119244.000000
3029 11958 1 0.16500 119244.000000
3029 15466 1 0.16500 119244.000000
3030 11958 1 0.16500 119244.000000
3030 15219 1 0.16500 119244.000000
3031 11958 1 0.16500 119244.000000
3031 12387 1 0.16500 119244.000000
3032 11958 1 0.16500 119244.000000
3032 12126 1 0.16500 119244.000000
3033 15622 1 0.16500 119244.000000
3033 19965 1 0.16500 119244.000000
3034 19965 1 0.16500 119244.000000
3034 21393 1 0.16500 119244.000000
3035 16777 1 0.16500 119244.000000
3035 19965 1 0.16500 119244.000000
3036 11959 1 0.16500 119244.000000
3036 15249 1 0.16500 119244.000000
3037 11959 1 0.16500 119244.000000
3037 12638 1 0.16500 119244.000000
3038 11959 1 0.16500 119244.000000
3038 12047 1 0.16500 119244.000000
3039 11960 1 0.16500 119244.000000
3039 18177 1 0.16500 119244.000000
3040 11960 1 0.16500 119244.000000
3040 14574 1 0.16500 119244.000000
3041 11960 1 0.16500 119244.000000
3041 24634 1 0.16500 119244.000000
3042 14253 1 0.16500 119244.000000
3042 19977 1 0.16500 119244.000000
3043 11961 1 0.16500 119244.000000
3043 15510 1 0.16500 119244.000000
3044 11961 1 0.16500 119244.000000
3044 14772 1 0.16500 119244.000000
3045 11961 1 0.16500 119244.000000
3045 12728 1 0.16500 119244.000000
3046 14921 1 0.16500 119244.000000
3046 15510 1 0.16500 119244.000000
3047 16117 1 0.16500 119244.000000
3047 19989 1 0.16500 119244.000000
3048 16155 1 0.16500 119244.000000
3048 19989 1 0.16500 119244.000000
3049 11962 1 0.16500 119244.000000
3049 13958 1 0.16500 119244.000000
3050 11962 1 0.16500 119244.000000
3050 15389 1 0.16500 119244.000000
3051 11962 1 0.16500 119244.000000
3051 12784 1 0.16500 119244.000000
3052 11962 1 0.16500 119244.000000
3052 15891 1 0.16500 119244.000000
3053 11963 1 0.16500 119244.000000
3053 15258 1 0.16500 119244.000000
3054 11260 1 0.16500 119244.000000
3054 11963 1 0.16500 119244.000000
3055 11963 1 0.16500 119244.000000
3055 14781 1 0.16500 119244.000000
3056 11613 1 0.16500 119244.000000
3056 12679 1 0.16500 119244.000000
3057 11483 1 0.16500 119244.000000
3057 14852 1 0.16500 119244.000000
3058 11965 1 0.16500 119244.000000
3058 13998 1 0.16500 119244.000000
3059 11965 1 0.16500 119244.000000
3059 15739 1 0.16500 119244.000000
3060 11965 1 0.16500 119244.000000
3060 15481 1 0.16500 119244.000000
3061 11966 1 0.16500 119244.000000
3061 13011 1 0.16500 119244.000000
3062 11966 1 0.16500 119244.000000
3062 16024 1 0.16500 119244.000000
3063 11967 1 0.16500 119244.000000
3063 12179 1 0.16500 119244.000000
3064 11967 1 0.16500 119244.000000
3064 13598 1 0.16500 119244.000000
3065 11967 1 0.16500 119244.000000
3065 13440 1 0.16500 119244.000000
3066 11967 1 0.16500 119244.000000
3066 15928 1 0.16500 119244.000000
3067 11968 1 0.16500 119244.000000
3067 13911 1 0.16500 119244.000000
3068 11968 1 0.16500 119244.000000
3068 14330 1 0.16500 119244.000000
3069 11968 1 0.16500 119244.000000
3069 16170 1 0.16500 119244.000000
3070 11969 1 0.16500 119244.000000
3070 14179 1 0.16500 119244.000000
3071 11969 1 0.16500 119244.000000
3071 24231 1 0.16500 119244.000000
3072 11969 1 0.16500 119244.000000
3072 24060 1 0.16500 119244.000000
3073 11969 1 0.16500 119244.000000
3073 15988 1 0.16500 119244.000000
3074 11970 1 0.16500 119244.000000
3074 12759 1 0.16500 119244.000000
3075 11970 1 0.16500 119244.000000
3075 15560 1 0.16500 119244.000000
3076 11970 1 0.16500 119244.000000
3076 13780 1 0.16500 119244.000000
3077 11971 1 0.16500 119244.000000
3077 13232 1 0.16500 119244.000000
3078 11971 1 0.16500 119244.000000
3078 15787 1 0.16500 119244.000000
3079 11971 1 0.16500 119244.000000
3079 15191 1 0.16500 119244.000000
3080 11972 1 0.16500 119244.000000
3080 15636 1 0.16500 119244.000000
3081 11972 1 0.16500 119244.000000
3081 16064 1 0.16500 119244.000000
3082 11973 1 0.16500 119244.000000
3082 15799 1 0.16500 119244.000000
3083 11973 1 0.16500 119244.000000
3083 15893 1 0.16500 119244.000000
3084 13244 1 0.16500 119244.000000
3084 14482 1 0.16500 119244.000000
3085 11974 1 0.16500 119244.000000
3085 15631 1 0.16500 119244.000000
3086 11974 1 0.16500 119244.000000
3086 13244 1 0.16500 119244.000000
3087 11975 1 0.16500 119244.000000
3087 13370 1 0.16500 119244.000000
3088 11975 1 0.16500 119244.000000
3088 12333 1 0.16500 119244.000000
3089 11975 1 0.16500 119244.000000
3089 14357 1 0.16500 119244.000000
3090 11976 1 0.16500 119244.000000
3090 12927 1 0.16500 119244.000000
3091 11976 1 0.16500 119244.000000
3091 12710 1 0.16500 119244.000000
3092 11976 1 0.16500 119244.000000
3092 13839 1 0.16500 119244.000000
3093 11976 1 0.16500 119244.000000
3093 12015 1 0.16500 119244.000000
3094 11977 1 0.16500 119244.000000
3094 14406 1 0.16500 119244.000000
3095 11977 1 0.16500 119244.000000
3095 12561 1 0.16500 119244.000000
3096 11977 1 0.16500 119244.000000
3096 14498 1 0.16500 119244.000000
3097 11978 1 0.16500 119244.000000
3097 13434 1 0.16500 119244.000000
3098 11978 1 0.16500 119244.000000
3098 13522 1 0.16500 119244.000000
3099 11978 1 0.16500 119244.000000
3099 15425 1 0.16500 119244.000000
3100 11979 1 0.16500 119244.000000
3100 15669 1 0.16500 119244.000000
3101 11979 1 0.16500 119244.000000
3101 23781 1 0.16500 119244.000000
3102 11980 1 0.16500 119244.000000
3102 14174 1 0.16500 119244.000000
3103 11980 1 0.16500 119244.000000
3103 12713 1 0.16500 119244.000000
3104 14409 1 0.16500 119244.000000
3104 20001 1 0.16500 119244.000000
3105 20001 1 0.16500 119244.000000
3105 24183 1 0.16500 119244.000000
3106 20001 1 0.16500 119244.000000
3106 22725 1 0.16500 119244.000000
3107 15029 1 0.16500 119244.000000
3107 15840 1 0.16500 119244.000000
3108 12304 1 0.16500 119244.000000
3108 15029 1 0.16500 119244.000000
3109 20013 1 0.16500 119244.000000
3109 20061 1 0.16500 119244.000000
3110 11981 1 0.16500 119244.000000
3110 15974 1 0.16500 119244.000000
3111 11981 1 0.16500 119244.000000
3111 13205 1 0.16500 119244.000000
3112 11981 1 0.16500 119244.000000
3112 13950 1 0.16500 119244.000000
3113 11982 1 0.16500 119244.000000
3113 13870 1 0.16500 119244.000000
3114 11982 1 0.16500 119244.000000
3114 16093 1 0.16500 119244.000000
3115 11982 1 0.16500 119244.000000
3115 12652 1 0.16500 119244.000000
3116 11982 1 0.16500 119244.000000
3116 16016 1 0.16500 119244.000000
3117 11983 1 0.16500 119244.000000
3117 12926 1 0.16500 119244.000000
3118 11983 1 0.16500 119244.000000
3118 13873 1 0.16500 119244.000000
3119 20025 1 0.16500 119244.000000
3119 23940 1 0.16500 119244.000000
3120 14494 1 0.16500 119244.000000
3120 20025 1 0.16500 119244.000000
3121 15031 1 0.16500 119244.000000
3121 20025 1 0.16500 119244.000000
3122 11984 1 0.16500 119244.000000
3122 14470 1 0.16500 119244.000000
3123 11984 1 0.16500 119244.000000
3123 14602 1 0.16500 119244.000000
3124 11984 1 0.16500 119244.000000
3124 14950 1 0.16500 119244.000000
3125 11984 1 0.16500 119244.000000
3125 15048 1 0.16500 119244.000000
3126 11985 1 0.16500 119244.000000
3126 14264 1 0.16500 119244.000000
3127 11985 1 0.16500 119244.000000
3127 15291 1 0.16500 119244.000000
3128 11985 1 0.16500 119244.000000
3128 16029 1 0.16500 119244.000000
3129 11985 1 0.16500 119244.000000
3129 16109 1 0.16500 119244.000000
3130 11986 1 0.16500 119244.000000
3130 14182 1 0.16500 119244.000000
3131 11986 1 0.16500 119244.000000
3131 13296 1 0.16500 119244.000000
3132 11986 1 0.16500 119244.000000
3132 12064 1 0.16500 119244.000000
3133 13773 1 0.16500 119244.000000
3133 24288 1 0.16500 119244.000000
3134 11987 1 0.16500 119244.000000
3134 13773 1 0.16500 119244.000000
3135 13773 1 0.16500 119244.000000
3135 14793 1 0.16500 119244.000000
3136 11987 1 0.16500 119244.000000
3136 15205 1 0.16500 119244.000000
3137 11988 1 0.16500 119244.000000
3137 15572 1 0.16500 119244.000000
3138 11988 1 0.16500 119244.000000
3138 14829 1 0.16500 119244.000000
3139 11988 1 0.16500 119244.000000
3139 13221 1 0.16500 119244.000000
3140 11989 1 0.16500 119244.000000
3140 15769 1 0.16500 119244.000000
3141 11989 1 0.16500 119244.000000
3141 15006 1 0.16500 119244.000000
3142 11989 1 0.16500 119244.000000
3142 12851 1 0.16500 119244.000000
3143 11989 1 0.16500 119244.000000
3143 13637 1 0.16500 119244.000000
3144 11990 1 0.16500 119244.000000
3144 13781 1 0.16500 119244.000000
3145 11990 1 0.16500 119244.000000
3145 14493 1 0.16500 119244.000000
3146 11990 1 0.16500 119244.000000
3146 13088 1 0.16500 119244.000000
3147 15286 1 0.16500 119244.000000
3147 20037 1 0.16500 119244.000000
3148 20049 1 0.16500 119244.000000
3148 22653 1 0.16500 119244.000000
3149 15480 1 0.16500 119244.000000
3149 20049 1 0.16500 119244.000000
3150 11991 1 0.16500 119244.000000
3150 13623 1 0.16500 119244.000000
3151 11991 1 0.16500 119244.000000
3151 13079 1 0.16500 119244.000000
3152 11991 1 0.16500 119244.000000
3152 12037 1 0.16500 119244.000000
3153 11991 1 0.16500 119244.000000
3153 12779 1 0.16500 119244.000000
3154 11992 1 0.16500 119244.000000
3154 15263 1 0.16500 119244.000000
3155 11992 1 0.16500 119244.000000
3155 15729 1 0.16500 119244.000000
3156 11992 1 0.16500 119244.000000
3156 13001 1 0.16500 119244.000000
3157 11993 1 0.16500 119244.000000
3157 13588 1 0.16500 119244.000000
3158 11993 1 0.16500 119244.000000
3158 15430 1 0.16500 119244.000000
3159 11993 1 0.16500 119244.000000
3159 15743 1 0.16500 119244.000000
3160 11993 1 0.16500 119244.000000
3160 14715 1 0.16500 119244.000000
3161 16168 1 0.16500 119244.000000
3161 20061 1 0.16500 119244.000000
3162 11994 1 0.16500 119244.000000
3162 15975 1 0.16500 119244.000000
3163 11994 1 0.16500 119244.000000
3163 14671 1 0.16500 119244.000000
3164 11994 1 0.16500 119244.000000
3164 12313 1 0.16500 119244.000000
3165 11995 1 0.16500 119244.000000
3165 13546 1 0.16500 119244.000000
3166 11995 1 0.16500 119244.000000
3166 13515 1 0.16500 119244.000000
3167 11995 1 0.16500 119244.000000
3167 12031 1 0.16500 119244.000000
3168 11995 1 0.16500 119244.000000
3168 12266 1 0.16500 119244.000000
3169 11996 1 0.16500 119244.000000
3169 14435 1 0.16500 119244.000000
3170 11996 1 0.16500 119244.000000
3170 14630 1 0.16500 119244.000000
3171 11996 1 0.16500 119244.000000
3171 12739 1 0.16500 119244.000000
3172 11996 1 0.16500 119244.000000
3172 12748 1 0.16500 119244.000000
3173 11997 1 0.16500 119244.000000
3173 13394 1 0.16500 119244.000000
3174 11997 1 0.16500 119244.000000
3174 13996 1 0.16500 119244.000000
3175 11997 1 0.16500 119244.000000
3175 12729 1 0.16500 119244.000000
3176 11997 1 0.16500 119244.000000
3176 12666 1 0.16500 119244.000000
3177 11998 1 0.16500 119244.000000
3177 13224 1 0.16500 119244.000000
3178 11998 1 0.16500 119244.000000
3178 14581 1 0.16500 119244.000000
3179 11998 1 0.16500 119244.000000
3179 13582 1 0.16500 119244.000000
3180 11998 1 0.16500 119244.000000
3180 12552 1 0.16500 119244.000000
3181 11999 1 0.16500 119244.000000
3181 13118 1 0.16500 119244.000000
3182 11999 1 0.16500 119244.000000
3182 13299 1 0.16500 119244.000000
3183 11999 1 0.16500 119244.000000
3183 15081 1 0.16500 119244.000000
3184 17617 1 0.16500 119244.000000
3184 18345 1 0.16500 119244.000000
3185 12000 1 0.16500 119244.000000
3185 15885 1 0.16500 119244.000000
3186 12000 1 0.16500 119244.000000
3186 12684 1 0.16500 119244.000000
3187 12000 1 0.16500 119244.000000
3187 14115 1 0.16500 119244.000000
3188 14357 1 0.16500 119244.000000
3188 20073 1 0.16500 119244.000000
3189 16763 1 0.16500 119244.000000
3189 20073 1 0.16500 119244.000000
3190 12001 1 0.16500 119244.000000
3190 14004 1 0.16500 119244.000000
3191 12001 1 0.16500 119244.000000
3191 13499 1 0.16500 119244.000000
3192 12001 1 0.16500 119244.000000
3192 15531 1 0.16500 119244.000000
3193 12001 1 0.16500 119244.000000
3193 12245 1 0.16500 119244.000000
3194 12002 1 0.16500 119244.000000
3194 15789 1 0.16500 119244.000000
3195 12002 1 0.16500 119244.000000
3195 24534 1 0.16500 119244.000000
3196 12168 1 0.16500 119244.000000
3196 15789 1 0.16500 119244.000000
3197 12002 1 0.16500 119244.000000
3197 13700 1 0.16500 119244.000000
3198 12003 1 0.16500 119244.000000
3198 16010 1 0.16500 119244.000000
3199 12003 1 0.16500 119244.000000
3199 13107 1 0.16500 119244.000000
3200 12003 1 0.16500 119244.000000
3200 13280 1 0.16500 119244.000000
3201 12003 1 0.16500 119244.000000
3201 16207 1 0.16500 119244.000000
3202 12004 1 0.16500 119244.000000
3202 13549 1 0.16500 119244.000000
3203 12004 1 0.16500 119244.000000
3203 13221 1 0.16500 119244.000000
3204 12004 1 0.16500 119244.000000
3204 14616 1 0.16500 119244.000000
3205 12004 1 0.16500 119244.000000
3205 14068 1 0.16500 119244.000000
3206 12005 1 0.16500 119244.000000
3206 15562 1 0.16500 119244.000000
3207 12005 1 0.16500 119244.000000
3207 24450 1 0.16500 119244.000000
3208 12005 1 0.16500 119244.000000
3208 13831 1 0.16500 119244.000000
3209 12006 1 0.16500 119244.000000
3209 14801 1 0.16500 119244.000000
3210 12006 1 0.16500 119244.000000
3210 13930 1 0.16500 119244.000000
3211 12006 1 0.16500 119244.000000
3211 15424 1 0.16500 119244.000000
3212 12006 1 0.16500 119244.000000
3212 14817 1 0.16500 119244.000000
3213 12007 1 0.16500 119244.000000
3213 12057 1 0.16500 119244.000000
3214 12086 1 0.16500 119244.000000
3214 14608 1 0.16500 119244.000000
3215 12007 1 0.16500 119244.000000
3215 12086 1 0.16500 119244.000000
3216 12008 1 0.16500 119244.000000
3216 12786 1 0.16500 119244.000000
3217 12008 1 0.16500 119244.000000
3217 12021 1 0.16500 119244.000000
3218 12008 1 0.16500 119244.000000
3218 14281 1 0.16500 119244.000000
3219 12009 1 0.16500 119244.000000
3219 20733 1 0.16500 119244.000000
3220 12009 1 0.16500 119244.000000
3220 23793 1 0.16500 119244.000000
3221 12009 1 0.16500 119244.000000
3221 24477 1 0.16500 119244.000000
3222 12009 1 0.16500 119244.000000
3222 12021 1 0.16500 119244.000000
3223 20085 1 0.16500 119244.000000
3223 23661 1 0.16500 119244.000000
3224 15591 1 0.16500 119244.000000
3224 20085 1 0.16500 119244.000000
3225 12010 1 0.16500 119244.000000
3225 15883 1 0.16500 119244.000000
3226 12010 1 0.16500 119244.000000
3226 13842 1 0.16500 119244.000000
3227 12010 1 0.16500 119244.000000
3227 12946 1 0.16500 119244.000000
3228 12010 1 0.16500 119244.000000
3228 13274 1 0.16500 119244.000000
3229 12011 1 0.16500 119244.000000
3229 15113 1 0.16500 119244.000000
3230 12011 1 0.16500 119244.000000
3230 13308 1 0.16500 119244.000000
3231 12011 1 0.16500 119244.000000
3231 12379 1 0.16500 119244.000000
3232 12011 1 0.16500 119244.000000
3232 12273 1 0.16500 119244.000000
3233 12012 1 0.16500 119244.000000
3233 12787 1 0.16500 119244.000000
3234 11545 1 0.16500 119244.000000
3234 12283 1 0.16500 119244.000000
3235 11545 1 0.16500 119244.000000
3235 13617 1 0.16500 119244.000000
3236 12013 1 0.16500 119244.000000
3236 12876 1 0.16500 119244.000000
3237 12013 1 0.16500 119244.000000
3237 14822 1 0.16500 119244.000000
3238 12013 1 0.16500 119244.000000
3238 16211 1 0.16500 119244.000000
3239 12013 1 0.16500 119244.000000
3239 12950 1 0.16500 119244.000000
3240 12014 1 0.16500 119244.000000
3240 13608 1 0.16500 119244.000000
3241 12014 1 0.16500 119244.000000
3241 14702 1 0.16500 119244.000000
3242 12014 1 0.16500 119244.000000
3242 15609 1 0.16500 119244.000000
3243 12015 1 0.16500 119244.000000
3243 15212 1 0.16500 119244.000000
3244 12015 1 0.16500 119244.000000
3244 13194 1 0.16500 119244.000000
3245 12015 1 0.16500 119244.000000
3245 12637 1 0.16500 119244.000000
3246 12016 1 0.16500 119244.000000
3246 12748 1 0.16500 119244.000000
3247 12016 1 0.16500 119244.000000
3247 13370 1 0.16500 119244.000000
3248 12016 1 0.16500 119244.000000
3248 20073 1 0.16500 119244.000000
3249 12016 1 0.16500 119244.000000
3249 12209 1 0.16500 119244.000000
3250 12017 1 0.16500 119244.000000
3250 12193 1 0.16500 119244.000000
3251 12017 1 0.16500 119244.000000
3251 13956 1 0.16500 119244.000000
3252 12017 1 0.16500 119244.000000
3252 13558 1 0.16500 119244.000000
3253 12018 1 0.16500 119244.000000
3253 12724 1 0.16500 119244.000000
3254 12018 1 0.16500 119244.000000
3254 15383 1 0.16500 119244.000000
3255 12018 1 0.16500 119244.000000
3255 12795 1 0.16500 119244.000000
3256 12019 1 0.16500 119244.000000
3256 15848 1 0.16500 119244.000000
3257 12019 1 0.16500 119244.000000
3257 13937 1 0.16500 119244.000000
3258 12019 1 0.16500 119244.000000
3258 15142 1 0.16500 119244.000000
3259 12019 1 0.16500 119244.000000
3259 12122 1 0.16500 119244.000000
3260 12020 1 0.16500 119244.000000
3260 13520 1 0.16500 119244.000000
3261 12020 1 0.16500 119244.000000
3261 13432 1 0.16500 119244.000000
3262 12020 1 0.16500 119244.000000
3262 13308 1 0.16500 119244.000000
3263 12020 1 0.16500 119244.000000
3263 13628 1 0.16500 119244.000000
3264 12021 1 0.16500 119244.000000
3264 13888 1 0.16500 119244.000000
3265 12022 1 0.16500 119244.000000
3265 12851 1 0.16500 119244.000000
3266 12022 1 0.16500 119244.000000
3266 12370 1 0.16500 119244.000000
3267 12022 1 0.16500 119244.000000
3267 12738 1 0.16500 119244.000000
3268 12022 1 0.16500 119244.000000
3268 13155 1 0.16500 119244.000000
3269 12023 1 0.16500 119244.000000
3269 15239 1 0.16500 119244.000000
3270 12023 1 0.16500 119244.000000
3270 13352 1 0.16500 119244.000000
3271 12023 1 0.16500 119244.000000
3271 12361 1 0.16500 119244.000000
3272 12023 1 0.16500 119244.000000
3272 14167 1 0.16500 119244.000000
3273 12024 1 0.16500 119244.000000
3273 13107 1 0.16500 119244.000000
3274 12024 1 0.16500 119244.000000
3274 12131 1 0.16500 119244.000000
3275 12024 1 0.16500 119244.000000
3275 16182 1 0.16500 119244.000000
3276 12024 1 0.16500 119244.000000
3276 15351 1 0.16500 119244.000000
3277 12025 1 0.16500 119244.000000
3277 15109 1 0.16500 119244.000000
3278 12025 1 0.16500 119244.000000
3278 14616 1 0.16500 119244.000000
3279 12026 1 0.16500 119244.000000
3279 12208 1 0.16500 119244.000000
3280 12026 1 0.16500 119244.000000
3280 15036 1 0.16500 119244.000000
3281 12026 1 0.16500 119244.000000
3281 13274 1 0.16500 119244.000000
3282 12027 1 0.16500 119244.000000
3282 16106 1 0.16500 119244.000000
3283 12027 1 0.16500 119244.000000
3283 16193 1 0.16500 119244.000000
3284 12280 1 0.16500 119244.000000
3284 20097 1 0.16500 119244.000000
3285 20097 1 0.16500 119244.000000
3285 23997 1 0.16500 119244.000000
3286 12028 1 0.16500 119244.000000
3286 12907 1 0.16500 119244.000000
3287 12028 1 0.16500 119244.000000
3287 15392 1 0.16500 119244.000000
3288 12029 1 0.16500 119244.000000
3288 13313 1 0.16500 119244.000000
3289 12029 1 0.16500 119244.000000
3289 13100 1 0.16500 119244.000000
3290 12029 1 0.16500 119244.000000
3290 12957 1 0.16500 119244.000000
3291 12674 1 0.16500 119244.000000
3291 13219 1 0.16500 119244.000000
3292 12030 1 0.16500 119244.000000
3292 13201 1 0.16500 119244.000000
3293 12030 1 0.16500 119244.000000
3293 12674 1 0.16500 119244.000000
3294 12030 1 0.16500 119244.000000
3294 13075 1 0.16500 119244.000000
3295 12031 1 0.16500 119244.000000
3295 13242 1 0.16500 119244.000000
3296 12031 1 0.16500 119244.000000
3296 14603 1 0.16500 119244.000000
3297 12031 1 0.16500 119244.000000
3297 13696 1 0.16500 119244.000000
3298 12969 1 0.16500 119244.000000
3298 13529 1 0.16500 119244.000000
3299 12032 1 0.16500 119244.000000
3299 12499 1 0.16500 119244.000000
3300 12032 1 0.16500 119244.000000
3300 12969 1 0.16500 119244.000000
3301 12032 1 0.16500 119244.000000
3301 21429 1 0.16500 119244.000000
3302 20109 1 0.16500 119244.000000
3302 22149 1 0.16500 119244.000000
3303 20109 1 0.16500 119244.000000
3303 20649 1 0.16500 119244.000000
3304 15060 1 0.16500 119244.000000
3304 20109 1 0.16500 119244.000000
3305 12033 1 0.16500 119244.000000
3305 15021 1 0.16500 119244.000000
3306 12033 1 0.16500 119244.000000
3306 13952 1 0.16500 119244.000000
3307 12033 1 0.16500 119244.000000
3307 14763 1 0.16500 119244.000000
3308 12033 1 0.16500 119244.000000
3308 12234 1 0.16500 119244.000000
3309 11864 1 0.16500 119244.000000
3309 12034 1 0.16500 119244.000000
3310 12034 1 0.16500 119244.000000
3310 12515 1 0.16500 119244.000000
3311 12034 1 0.16500 119244.000000
3311 13415 1 0.16500 119244.000000
3312 12034 1 0.16500 119244.000000
3312 15803 1 0.16500 119244.000000
3313 12035 1 0.16500 119244.000000
3313 15508 1 0.16500 119244.000000
3314 12035 1 0.16500 119244.000000
3314 15627 1 0.16500 119244.000000
3315 12035 1 0.16500 119244.000000
3315 12155 1 0.16500 119244.000000
3316 12035 1 0.16500 119244.000000
3316 15804 1 0.16500 119244.000000
3317 12036 1 0.16500 119244.000000
3317 14031 1 0.16500 119244.000000
3318 12036 1 0.16500 119244.000000
3318 15539 1 0.16500 119244.000000
3319 12036 1 0.16500 119244.000000
3319 14120 1 0.16500 119244.000000
3320 12037 1 0.16500 119244.000000
3320 15231 1 0.16500 119244.000000
3321 12037 1 0.16500 119244.000000
3321 15792 1 0.16500 119244.000000
3322 12037 1 0.16500 119244.000000
3322 13378 1 0.16500 119244.000000
3323 12038 1 0.16500 119244.000000
3323 14413 1 0.16500 119244.000000
3324 12038 1 0.16500 119244.000000
3324 12868 1 0.16500 119244.000000
3325 12039 1 0.16500 119244.000000
3325 13125 1 0.16500 119244.000000
3326 12039 1 0.16500 119244.000000
3326 14073 1 0.16500 119244.000000
3327 12039 1 0.16500 119244.000000
3327 13276 1 0.16500 119244.000000
3328 12854 1 0.16500 119244.000000
3328 14073 1 0.16500 119244.000000
3329 12040 1 0.16500 119244.000000
3329 13397 1 0.16500 119244.000000
3330 12040 1 0.16500 119244.000000
3330 13120 1 0.16500 119244.000000
3331 12040 1 0.16500 119244.000000
3331 12607 1 0.16500 119244.000000
3332 12040 1 0.16500 119244.000000
3332 17435 1 0.16500 119244.000000
3333 20121 1 0.16500 119244.000000
3333 23529 1 0.16500 119244.000000
3334 13768 1 0.16500 119244.000000
3334 20121 1 0.16500 119244.000000
3335 13731 1 0.16500 119244.000000
3335 20121 1 0.16500 119244.000000
3336 12041 1 0.16500 119244.000000
3336 15065 1 0.16500 119244.000000
3337 12041 1 0.16500 119244.000000
3337 20841 1 0.16500 119244.000000
3338 20133 1 0.16500 119244.000000
3338 24279 1 0.16500 119244.000000
3339 15612 1 0.16500 119244.000000
3339 20133 1 0.16500 119244.000000
3340 12042 1 0.16500 119244.000000
3340 13341 1 0.16500 119244.000000
3341 12042 1 0.16500 119244.000000
3341 12967 1 0.16500 119244.000000
3342 12042 1 0.16500 119244.000000
3342 13064 1 0.16500 119244.000000
3343 12042 1 0.16500 119244.000000
3343 15452 1 0.16500 119244.000000
3344 12043 1 0.16500 119244.000000
3344 13501 1 0.16500 119244.000000
3345 12043 1 0.16500 119244.000000
3345 24042 1 0.16500 119244.000000
3346 12043 1 0.16500 119244.000000
3346 12393 1 0.16500 119244.000000
3347 12043 1 0.16500 119244.000000
3347 24654 1 0.16500 119244.000000
3348 12044 1 0.16500 119244.000000
3348 14425 1 0.16500 119244.000000
3349 12044 1 0.16500 119244.000000
3349 14182 1 0.16500 119244.000000
3350 12044 1 0.16500 119244.000000
3350 12360 1 0.16500 119244.000000
3351 13538 1 0.16500 119244.000000
3351 20145 1 0.16500 119244.000000
3352 14862 1 0.16500 119244.000000
3352 20145 1 0.16500 119244.000000
3353 20145 1 0.16500 119244.000000
3353 24555 1 0.16500 119244.000000
3354 12045 1 0.16500 119244.000000
3354 14292 1 0.16500 119244.000000
3355 12045 1 0.16500 119244.000000
3355 15800 1 0.16500 119244.000000
3356 12045 1 0.16500 119244.000000
3356 14330 1 0.16500 119244.000000
3357 13765 1 0.16500 119244.000000
3357 16203 1 0.16500 119244.000000
3358 12046 1 0.16500 119244.000000
3358 21777 1 0.16500 119244.000000
3359 12046 1 0.16500 119244.000000
3359 13765 1 0.16500 119244.000000
3360 12046 1 0.16500 119244.000000
3360 12253 1 0.16500 119244.000000
3361 12047 1 0.16500 119244.000000
3361 14235 1 0.16500 119244.000000
3362 12047 1 0.16500 119244.000000
3362 15922 1 0.16500 119244.000000
3363 12047 1 0.16500 119244.000000
3363 12789 1 0.16500 119244.000000
3364 12048 1 0.16500 119244.000000
3364 12283 1 0.16500 119244.000000
3365 12048 1 0.16500 119244.000000
3365 20649 1 0.16500 119244.000000
3366 13249 1 0.16500 119244.000000
3366 16009 1 0.16500 119244.000000
3367 12048 1 0.16500 119244.000000
3367 13249 1 0.16500 119244.000000
3368 12049 1 0.16500 119244.000000
3368 12911 1 0.16500 119244.000000
3369 12049 1 0.16500 119244.000000
3369 12920 1 0.16500 119244.000000
3370 12049 1 0.16500 119244.000000
3370 15393 1 0.16500 119244.000000
3371 13113 1 0.16500 119244.000000
3371 20157 1 0.16500 119244.000000
3372 12050 1 0.16500 119244.000000
3372 22617 1 0.16500 119244.000000
3373 12050 1 0.16500 119244.000000
3373 12901 1 0.16500 119244.000000
3374 12050 1 0.16500 119244.000000
3374 12067 1 0.16500 119244.000000
3375 12050 1 0.16500 119244.000000
3375 15042 1 0.16500 119244.000000
3376 14284 1 0.16500 119244.000000
3376 20169 1 0.16500 119244.000000
3377 15009 1 0.16500 119244.000000
3377 20169 1 0.16500 119244.000000
3378 14967 1 0.16500 119244.000000
3378 20169 1 0.16500 119244.000000
3379 13098 1 0.16500 119244.000000
3379 20181 1 0.16500 119244.000000
3380 20181 1 0.16500 119244.000000
3380 24219 1 0.16500 119244.000000
3381 12051 1 0.16500 119244.000000
3381 14451 1 0.16500 119244.000000
3382 12051 1 0.16500 119244.000000
3382 14342 1 0.16500 119244.000000
3383 12051 1 0.16500 119244.000000
3383 12510 1 0.16500 119244.000000
3384 12051 1 0.16500 119244.000000
3384 13737 1 0.16500 119244.000000
3385 14627 1 0.16500 119244.000000
3385 20193 1 0.16500 119244.000000
3386 12559 1 0.16500 119244.000000
3386 20193 1 0.16500 119244.000000
3387 13186 1 0.16500 119244.000000
3387 20193 1 0.16500 119244.000000
3388 12052 1 0.16500 119244.000000
3388 15534 1 0.16500 119244.000000
3389 12052 1 0.16500 119244.000000
3389 12843 1 0.16500 119244.000000
3390 12052 1 0.16500 119244.000000
3390 14105 1 0.16500 119244.000000
3391 12052 1 0.16500 119244.000000
3391 13384 1 0.16500 119244.000000
3392 12053 1 0.16500 119244.000000
3392 13953 1 0.16500 119244.000000
3393 12053 1 0.16500 119244.000000
3393 12647 1 0.16500 119244.000000
3394 12053 1 0.16500 119244.000000
3394 16134 1 0.16500 119244.000000
3395 12053 1 0.16500 119244.000000
3395 13356 1 0.16500 119244.000000
3396 12054 1 0.16500 119244.000000
3396 12309 1 0.16500 119244.000000
3397 12054 1 0.16500 119244.000000
3397 13887 1 0.16500 119244.000000
3398 12054 1 0.16500 119244.000000
3398 16089 1 0.16500 119244.000000
3399 12055 1 0.16500 119244.000000
3399 15657 1 0.16500 119244.000000
3400 12055 1 0.16500 119244.000000
3400 13182 1 0.16500 119244.000000
3401 12055 1 0.16500 119244.000000
3401 13581 1 0.16500 119244.000000
3402 12056 1 0.16500 119244.000000
3402 14455 1 0.16500 119244.000000
3403 12056 1 0.16500 119244.000000
3403 13451 1 0.16500 119244.000000
3404 12056 1 0.16500 119244.000000
3404 14925 1 0.16500 119244.000000
3405 12056 1 0.16500 119244.000000
3405 13890 1 0.16500 119244.000000
3406 12057 1 0.16500 119244.000000
3406 15813 1 0.16500 119244.000000
3407 12346 1 0.16500 119244.000000
3407 14556 1 0.16500 119244.000000
3408 12058 1 0.16500 119244.000000
3408 12346 1 0.16500 119244.000000
3409 12058 1 0.16500 119244.000000
3409 14886 1 0.16500 119244.000000
3410 12059 1 0.16500 119244.000000
3410 15866 1 0.16500 119244.000000
3411 12059 1 0.16500 119244.000000
3411 16033 1 0.16500 119244.000000
3412 12059 1 0.16500 119244.000000
3412 14136 1 0.16500 119244.000000
3413 12059 1 0.16500 119244.000000
3413 15942 1 0.16500 119244.000000
3414 12060 1 0.16500 119244.000000
3414 12792 1 0.16500 119244.000000
3415 12792 1 0.16500 119244.000000
3415 13774 1 0.16500 119244.000000
3416 12060 1 0.16500 119244.000000
3416 12619 1 0.16500 119244.000000
3417 14345 1 0.16500 119244.000000
3417 20205 1 0.16500 119244.000000
3418 20205 1 0.16500 119244.000000
3418 24729 1 0.16500 119244.000000
3419 20205 1 0.16500 119244.000000
3419 22365 1 0.16500 119244.000000
3420 12061 1 0.16500 119244.000000
3420 14310 1 0.16500 119244.000000
3421 12061 1 0.16500 119244.000000
3421 14728 1 0.16500 119244.000000
3422 12061 1 0.16500 119244.000000
3422 15261 1 0.16500 119244.000000
3423 12061 1 0.16500 119244.000000
3423 15297 1 0.16500 119244.000000
3424 12062 1 0.16500 119244.000000
3424 15247 1 0.16500 119244.000000
3425 12062 1 0.16500 119244.000000
3425 16833 1 0.16500 119244.000000
3426 12063 1 0.16500 119244.000000
3426 15115 1 0.16500 119244.000000
3427 12063 1 0.16500 119244.000000
3427 13705 1 0.16500 119244.000000
3428 12063 1 0.16500 119244.000000
3428 15601 1 0.16500 119244.000000
3429 12063 1 0.16500 119244.000000
3429 14339 1 0.16500 119244.000000
3430 14944 1 0.16500 119244.000000
3430 20217 1 0.16500 119244.000000
3431 14087 1 0.16500 119244.000000
3431 20217 1 0.16500 119244.000000
3432 11929 1 0.16500 119244.000000
3432 12064 1 0.16500 119244.000000
3433 12064 1 0.16500 119244.000000
3433 13767 1 0.16500 119244.000000
3434 12077 1 0.16500 119244.000000
3434 19953 1 0.16500 119244.000000
3435 12065 1 0.16500 119244.000000
3435 14368 1 0.16500 119244.000000
3436 12065 1 0.16500 119244.000000
3436 12104 1 0.16500 119244.000000
3437 12065 1 0.16500 119244.000000
3437 14544 1 0.16500 119244.000000
3438 12065 1 0.16500 119244.000000
3438 14306 1 0.16500 119244.000000
3439 12066 1 0.16500 119244.000000
3439 12647 1 0.16500 119244.000000
3440 12066 1 0.16500 119244.000000
3440 12697 1 0.16500 119244.000000
3441 12066 1 0.16500 119244.000000
3441 16008 1 0.16500 119244.000000
3442 12066 1 0.16500 119244.000000
3442 15096 1 0.16500 119244.000000
3443 12067 1 0.16500 119244.000000
3443 23601 1 0.16500 119244.000000
3444 12068 1 0.16500 119244.000000
3444 12771 1 0.16500 119244.000000
3445 12068 1 0.16500 119244.000000
3445 13153 1 0.16500 119244.000000
3446 12068 1 0.16500 119244.000000
3446 13402 1 0.16500 119244.000000
3447 12068 1 0.16500 119244.000000
3447 13210 1 0.16500 119244.000000
3448 12069 1 0.16500 119244.000000
3448 12660 1 0.16500 119244.000000
3449 12069 1 0.16500 119244.000000
3449 14210 1 0.16500 119244.000000
3450 12007 1 0.16500 119244.000000
3450 12069 1 0.16500 119244.000000
3451 12069 1 0.16500 119244.000000
3451 15287 1 0.16500 119244.000000
3452 12070 1 0.16500 119244.000000
3452 14234 1 0.16500 119244.000000
3453 12070 1 0.16500 119244.000000
3453 12968 1 0.16500 119244.000000
3454 12071 1 0.16500 119244.000000
3454 14349 1 0.16500 119244.000000
3455 12071 1 0.16500 119244.000000
3455 12101 1 0.16500 119244.000000
3456 12071 1 0.16500 119244.000000
3456 15350 1 0.16500 119244.000000
3457 12072 1 0.16500 119244.000000
3457 15798 1 0.16500 119244.000000
3458 14371 1 0.16500 119244.000000
3458 16142 1 0.16500 119244.000000
3459 12072 1 0.16500 119244.000000
3459 12620 1 0.16500 119244.000000
3460 12073 1 0.16500 119244.000000
3460 15253 1 0.16500 119244.000000
3461 12073 1 0.16500 119244.000000
3461 13933 1 0.16500 119244.000000
3462 12073 1 0.16500 119244.000000
3462 15449 1 0.16500 119244.000000
3463 12073 1 0.16500 119244.000000
3463 24579 1 0.16500 119244.000000
3464 11389 1 0.16500 119244.000000
3464 12074 1 0.16500 119244.000000
3465 12074 1 0.16500 119244.000000
3465 14415 1 0.16500 119244.000000
3466 12074 1 0.16500 119244.000000
3466 14768 1 0.16500 119244.000000
3467 12074 1 0.16500 119244.000000
3467 15592 1 0.16500 119244.000000
3468 12075 1 0.16500 119244.000000
3468 15520 1 0.16500 119244.000000
3469 12075 1 0.16500 119244.000000
3469 13759 1 0.16500 119244.000000
3470 12075 1 0.16500 119244.000000
3470 24465 1 0.16500 119244.000000
3471 12076 1 0.16500 119244.000000
3471 13260 1 0.16500 119244.000000
3472 12076 1 0.16500 119244.000000
3472 14589 1 0.16500 119244.000000
3473 12076 1 0.16500 119244.000000
3473 14585 1 0.16500 119244.000000
3474 12076 1 0.16500 119244.000000
3474 13082 1 0.16500 119244.000000
3475 12077 1 0.16500 119244.000000
3475 15227 1 0.16500 119244.000000
3476 12077 1 0.16500 119244.000000
3476 13982 1 0.16500 119244.000000
3477 12151 1 0.16500 119244.000000
3477 20229 1 0.16500 119244.000000
3478 20229 1 0.16500 119244.000000
3478 23265 1 0.16500 119244.000000
3479 20229 1 0.16500 119244.000000
3479 22701 1 0.16500 119244.000000
3480 12078 1 0.16500 119244.000000
3480 13085 1 0.16500 119244.000000
3481 12078 1 0.16500 119244.000000
3481 15529 1 0.16500 119244.000000
3482 12078 1 0.16500 119244.000000
3482 13866 1 0.16500 119244.000000
3483 12078 1 0.16500 119244.000000
3483 13591 1 0.16500 119244.000000
3484 12079 1 0.16500 119244.000000
3484 14549 1 0.16500 119244.000000
3485 12079 1 0.16500 119244.000000
3485 16202 1 0.16500 119244.000000
3486 15079 1 0.16500 119244.000000
3486 20241 1 0.16500 119244.000000
3487 13080 1 0.16500 119244.000000
3487 20241 1 0.16500 119244.000000
3488 14463 1 0.16500 119244.000000
3488 20241 1 0.16500 119244.000000
3489 12080 1 0.16500 119244.000000
3489 16039 1 0.16500 119244.000000
3490 12080 1 0.16500 119244.000000
3490 19941 1 0.16500 119244.000000
3491 12080 1 0.16500 119244.000000
3491 12880 1 0.16500 119244.000000
3492 22437 1 0.16500 119244.000000
3492 24120 1 0.16500 119244.000000
3493 22437 1 0.16500 119244.000000
3493 24189 1 0.16500 119244.000000
3494 15765 1 0.16500 119244.000000
3494 23457 1 0.16500 119244.000000
3495 12081 1 0.16500 119244.000000
3495 13367 1 0.16500 119244.000000
3496 12081 1 0.16500 119244.000000
3496 14741 1 0.16500 119244.000000
3497 12081 1 0.16500 119244.000000
3497 15433 1 0.16500 119244.000000
3498 12081 1 0.16500 119244.000000
3498 14540 1 0.16500 119244.000000
3499 12082 1 0.16500 119244.000000
3499 15881 1 0.16500 119244.000000
3500 12082 1 0.16500 119244.000000
3500 20493 1 0.16500 119244.000000
3501 12082 1 0.16500 119244.000000
3501 13564 1 0.16500 119244.000000
3502 12082 1 0.16500 119244.000000
3502 14506 1 0.16500 119244.000000
3503 12083 1 0.16500 119244.000000
3503 13199 1 0.16500 119244.000000
3504 12083 1 0.16500 119244.000000
3504 16651 1 0.16500 119244.000000
3505 12083 1 0.16500 119244.000000
3505 15720 1 0.16500 119244.000000
3506 12084 1 0.16500 119244.000000
3506 13959 1 0.16500 119244.000000
3507 12084 1 0.16500 119244.000000
3507 14680 1 0.16500 119244.000000
3508 12084 1 0.16500 119244.000000
3508 14536 1 0.16500 119244.000000
3509 12084 1 0.16500 119244.000000
3509 15494 1 0.16500 119244.000000
3510 12085 1 0.16500 119244.000000
3510 13520 1 0.16500 119244.000000
3511 12085 1 0.16500 119244.000000
3511 13533 1 0.16500 119244.000000
3512 12085 1 0.16500 119244.000000
3512 14685 1 0.16500 119244.000000
3513 12085 1 0.16500 119244.000000
3513 15943 1 0.16500 119244.000000
3514 12086 1 0.16500 119244.000000
3514 14583 1 0.16500 119244.000000
3515 12086 1 0.16500 119244.000000
3515 15517 1 0.16500 119244.000000
3516 12087 1 0.16500 119244.000000
3516 15021 1 0.16500 119244.000000
3517 12087 1 0.16500 119244.000000
3517 12390 1 0.16500 119244.000000
3518 12088 1 0.16500 119244.000000
3518 23277 1 0.16500 119244.000000
3519 12088 1 0.16500 119244.000000
3519 22641 1 0.16500 119244.000000
3520 12088 1 0.16500 119244.000000
3520 12756 1 0.16500 119244.000000
3521 12089 1 0.16500 119244.000000
3521 15462 1 0.16500 119244.000000
3522 12089 1 0.16500 119244.000000
3522 13081 1 0.16500 119244.000000
3523 12089 1 0.16500 119244.000000
3523 15572 1 0.16500 119244.000000
3524 12089 1 0.16500 119244.000000
3524 15566 1 0.16500 119244.000000
3525 20253 1 0.16500 119244.000000
3525 23421 1 0.16500 119244.000000
3526 15069 1 0.16500 119244.000000
3526 20253 1 0.16500 119244.000000
3527 20253 1 0.16500 119244.000000
3527 24096 1 0.16500 119244.000000
3528 12090 1 0.16500 119244.000000
3528 16074 1 0.16500 119244.000000
3529 12090 1 0.16500 119244.000000
3529 15812 1 0.16500 119244.000000
3530 12090 1 0.16500 119244.000000
3530 15293 1 0.16500 119244.000000
3531 12091 1 0.16500 119244.000000
3531 13605 1 0.16500 119244.000000
3532 12091 1 0.16500 119244.000000
3532 12975 1 0.16500 119244.000000
3533 12091 1 0.16500 119244.000000
3533 13415 1 0.16500 119244.000000
3534 12091 1 0.16500 119244.000000
3534 15405 1 0.16500 119244.000000
3535 12092 1 0.16500 119244.000000
3535 12529 1 0.16500 119244.000000
3536 12092 1 0.16500 119244.000000
3536 16202 1 0.16500 119244.000000
3537 12092 1 0.16500 119244.000000
3537 24674 1 0.16500 119244.000000
3538 12093 1 0.16500 119244.000000
3538 16130 1 0.16500 119244.000000
3539 12093 1 0.16500 119244.000000
3539 21549 1 0.16500 119244.000000
3540 12093 1 0.16500 119244.000000
3540 17351 1 0.16500 119244.000000
3541 12093 1 0.16500 119244.000000
3541 13835 1 0.16500 119244.000000
3542 12094 1 0.16500 119244.000000
3542 12270 1 0.16500 119244.000000
3543 12094 1 0.16500 119244.000000
3543 24724 1 0.16500 119244.000000
3544 12094 1 0.16500 119244.000000
3544 14025 1 0.16500 119244.000000
3545 12094 1 0.16500 119244.000000
3545 14227 1 0.16500 119244.000000
3546 12095 1 0.16500 119244.000000
3546 15603 1 0.16500 119244.000000
3547 12095 1 0.16500 119244.000000
3547 12438 1 0.16500 119244.000000
3548 12095 1 0.16500 119244.000000
3548 14445 1 0.16500 119244.000000
3549 12096 1 0.16500 119244.000000
3549 22845 1 0.16500 119244.000000
3550 12096 1 0.16500 119244.000000
3550 14376 1 0.16500 119244.000000
3551 12096 1 0.16500 119244.000000
3551 14491 1 0.16500 119244.000000
3552 12096 1 0.16500 119244.000000
3552 15124 1 0.16500 119244.000000
3553 12097 1 0.16500 119244.000000
3553 13974 1 0.16500 119244.000000
3554 12097 1 0.16500 119244.000000
3554 13481 1 0.16500 119244.000000
3555 12098 1 0.16500 119244.000000
3555 15936 1 0.16500 119244.000000
3556 12098 1 0.16500 119244.000000
3556 12323 1 0.16500 119244.000000
3557 12098 1 0.16500 119244.000000
3557 15981 1 0.16500 119244.000000
3558 12098 1 0.16500 119244.000000
3558 14709 1 0.16500 119244.000000
3559 20265 1 0.16500 119244.000000
3559 24126 1 0.16500 119244.000000
3560 18023 1 0.16500 119244.000000
3560 20265 1 0.16500 119244.000000
3561 13501 1 0.16500 119244.000000
3561 20265 1 0.16500 119244.000000
3562 15522 1 0.16500 119244.000000
3562 16131 1 0.16500 119244.000000
3563 12099 1 0.16500 119244.000000
3563 12187 1 0.16500 119244.000000
3564 12099 1 0.16500 119244.000000
3564 15522 1 0.16500 119244.000000
3565 12681 1 0.16500 119244.000000
3565 15522 1 0.16500 119244.000000
3566 13348 1 0.16500 119244.000000
3566 20277 1 0.16500 119244.000000
3567 20277 1 0.16500 119244.000000
3567 24315 1 0.16500 119244.000000
3568 20277 1 0.16500 119244.000000
3568 24093 1 0.16500 119244.000000
3569 16217 1 0.16500 119244.000000
3569 24784 1 0.16500 119244.000000
3570 16217 1 0.16500 119244.000000
3570 24396 1 0.16500 119244.000000
3571 12100 1 0.16500 119244.000000
3571 14307 1 0.16500 119244.000000
3572 12100 1 0.16500 119244.000000
3572 13078 1 0.16500 119244.000000
3573 12100 1 0.16500 119244.000000
3573 14151 1 0.16500 119244.000000
3574 12100 1 0.16500 119244.000000
3574 12333 1 0.16500 119244.000000
3575 12101 1 0.16500 119244.000000
3575 12662 1 0.16500 119244.000000
3576 12101 1 0.16500 119244.000000
3576 15923 1 0.16500 119244.000000
3577 11613 1 0.16500 119244.000000
3577 13085 1 0.16500 119244.000000
3578 12102 1 0.16500 119244.000000
3578 13198 1 0.16500 119244.000000
3579 12102 1 0.16500 119244.000000
3579 13866 1 0.16500 119244.000000
3580 12103 1 0.16500 119244.000000
3580 15879 1 0.16500 119244.000000
3581 12103 1 0.16500 119244.000000
3581 15330 1 0.16500 119244.000000
3582 12103 1 0.16500 119244.000000
3582 15100 1 0.16500 119244.000000
3583 12104 1 0.16500 119244.000000
3583 14084 1 0.16500 119244.000000
3584 12105 1 0.16500 119244.000000
3584 14876 1 0.16500 119244.000000
3585 12105 1 0.16500 119244.000000
3585 15279 1 0.16500 119244.000000
3586 12105 1 0.16500 119244.000000
3586 12769 1 0.16500 119244.000000
3587 12892 1 0.16500 119244.000000
3587 15948 1 0.16500 119244.000000
3588 12106 1 0.16500 119244.000000
3588 12892 1 0.16500 119244.000000
3589 12106 1 0.16500 119244.000000
3589 16040 1 0.16500 119244.000000
3590 12106 1 0.16500 119244.000000
3590 12997 1 0.16500 119244.000000
3591 12107 1 0.16500 119244.000000
3591 15216 1 0.16500 119244.000000
3592 12107 1 0.16500 119244.000000
3592 12424 1 0.16500 119244.000000
3593 12107 1 0.16500 119244.000000
3593 12757 1 0.16500 119244.000000
3594 12107 1 0.16500 119244.000000
3594 14883 1 0.16500 119244.000000
3595 12108 1 0.16500 119244.000000
3595 13550 1 0.16500 119244.000000
3596 12108 1 0.16500 119244.000000
3596 15612 1 0.16500 119244.000000
3597 12108 1 0.16500 119244.000000
3597 14118 1 0.16500 119244.000000
3598 12109 1 0.16500 119244.000000
3598 14640 1 0.16500 119244.000000
3599 12109 1 0.16500 119244.000000
3599 12284 1 0.16500 119244.000000
3600 12109 1 0.16500 119244.000000
3600 12198 1 0.16500 119244.000000
3601 20289 1 0.16500 119244.000000
3601 23961 1 0.16500 119244.000000
3602 12110 1 0.16500 119244.000000
3602 14332 1 0.16500 119244.000000
3603 12110 1 0.16500 119244.000000
3603 21813 1 0.16500 119244.000000
3604 12110 1 0.16500 119244.000000
3604 21801 1 0.16500 119244.000000
3605 12111 1 0.16500 119244.000000
3605 14057 1 0.16500 119244.000000
3606 12111 1 0.16500 119244.000000
3606 13712 1 0.16500 119244.000000
3607 12111 1 0.16500 119244.000000
3607 14093 1 0.16500 119244.000000
3608 12111 1 0.16500 119244.000000
3608 13978 1 0.16500 119244.000000
3609 12112 1 0.16500 119244.000000
3609 14834 1 0.16500 119244.000000
3610 12112 1 0.16500 119244.000000
3610 13915 1 0.16500 119244.000000
3611 12112 1 0.16500 119244.000000
3611 15718 1 0.16500 119244.000000
3612 12112 1 0.16500 119244.000000
3612 15010 1 0.16500 119244.000000
3613 12113 1 0.16500 119244.000000
3613 14553 1 0.16500 119244.000000
3614 12113 1 0.16500 119244.000000
3614 12506 1 0.16500 119244.000000
3615 12113 1 0.16500 119244.000000
3615 14666 1 0.16500 119244.000000
3616 12113 1 0.16500 119244.000000
3616 13041 1 0.16500 119244.000000
3617 11576 1 0.16500 119244.000000
3617 14762 1 0.16500 119244.000000
3618 12114 1 0.16500 119244.000000
3618 13432 1 0.16500 119244.000000
3619 12114 1 0.16500 119244.000000
3619 12736 1 0.16500 119244.000000
3620 12115 1 0.16500 119244.000000
3620 14915 1 0.16500 119244.000000
3621 12115 1 0.16500 119244.000000
3621 14194 1 0.16500 119244.000000
3622 12115 1 0.16500 119244.000000
3622 15326 1 0.16500 119244.000000
3623 12116 1 0.16500 119244.000000
3623 12411 1 0.16500 119244.000000
3624 12116 1 0.16500 119244.000000
3624 15367 1 0.16500 119244.000000
3625 15367 1 0.16500 119244.000000
3625 21309 1 0.16500 119244.000000
3626 12116 1 0.16500 119244.000000
3626 24573 1 0.16500 119244.000000
3627 20301 1 0.16500 119244.000000
3627 21093 1 0.16500 119244.000000
3628 21741 1 0.16500 119244.000000
3628 23829 1 0.16500 119244.000000
3629 12117 1 0.16500 119244.000000
3629 13480 1 0.16500 119244.000000
3630 13480 1 0.16500 119244.000000
3630 15240 1 0.16500 119244.000000
3631 12117 1 0.16500 119244.000000
3631 14889 1 0.16500 119244.000000
3632 12118 1 0.16500 119244.000000
3632 12584 1 0.16500 119244.000000
3633 12118 1 0.16500 119244.000000
3633 24799 1 0.16500 119244.000000
3634 12118 1 0.16500 119244.000000
3634 13427 1 0.16500 119244.000000
3635 17855 1 0.16500 119244.000000
3635 24799 1 0.16500 119244.000000
3636 12119 1 0.16500 119244.000000
3636 15619 1 0.16500 119244.000000
3637 12119 1 0.16500 119244.000000
3637 13753 1 0.16500 119244.000000
3638 12120 1 0.16500 119244.000000
3638 15319 1 0.16500 119244.000000
3639 12120 1 0.16500 119244.000000
3639 15339 1 0.16500 119244.000000
3640 12120 1 0.16500 119244.000000
3640 15855 1 0.16500 119244.000000
3641 12120 1 0.16500 119244.000000
3641 13878 1 0.16500 119244.000000
3642 15198 1 0.16500 119244.000000
3642 20313 1 0.16500 119244.000000
3643 14699 1 0.16500 119244.000000
3643 20313 1 0.16500 119244.000000
3644 17841 1 0.16500 119244.000000
3644 20325 1 0.16500 119244.000000
3645 20325 1 0.16500 119244.000000
3645 21861 1 0.16500 119244.000000
3646 12121 1 0.16500 119244.000000
3646 13957 1 0.16500 119244.000000
3647 12121 1 0.16500 119244.000000
3647 13172 1 0.16500 119244.000000
3648 12121 1 0.16500 119244.000000
3648 12681 1 0.16500 119244.000000
3649 12122 1 0.16500 119244.000000
3649 12965 1 0.16500 119244.000000
3650 12122 1 0.16500 119244.000000
3650 14896 1 0.16500 119244.000000
3651 12123 1 0.16500 119244.000000
3651 15475 1 0.16500 119244.000000
3652 12123 1 0.16500 119244.000000
3652 12246 1 0.16500 119244.000000
3653 12123 1 0.16500 119244.000000
3653 15893 1 0.16500 119244.000000
3654 12124 1 0.16500 119244.000000
3654 12903 1 0.16500 119244.000000
3655 11726 1 0.16500 119244.000000
3655 13557 1 0.16500 119244.000000
3656 12124 1 0.16500 119244.000000
3656 13724 1 0.16500 119244.000000
3657 12124 1 0.16500 119244.000000
3657 13557 1 0.16500 119244.000000
3658 12125 1 0.16500 119244.000000
3658 15900 1 0.16500 119244.000000
3659 12125 1 0.16500 119244.000000
3659 14689 1 0.16500 119244.000000
3660 12125 1 0.16500 119244.000000
3660 14769 1 0.16500 119244.000000
3661 12126 1 0.16500 119244.000000
3661 14489 1 0.16500 119244.000000
3662 12126 1 0.16500 119244.000000
3662 15326 1 0.16500 119244.000000
3663 12126 1 0.16500 119244.000000
3663 14689 1 0.16500 119244.000000
3664 12127 1 0.16500 119244.000000
3664 12335 1 0.16500 119244.000000
3665 12127 1 0.16500 119244.000000
3665 13041 1 0.16500 119244.000000
3666 12127 1 0.16500 119244.000000
3666 13549 1 0.16500 119244.000000
3667 12127 1 0.16500 119244.000000
3667 13751 1 0.16500 119244.000000
3668 12128 1 0.16500 119244.000000
3668 14458 1 0.16500 119244.000000
3669 12128 1 0.16500 119244.000000
3669 14333 1 0.16500 119244.000000
3670 12128 1 0.16500 119244.000000
3670 12213 1 0.16500 119244.000000
3671 12128 1 0.16500 119244.000000
3671 15728 1 0.16500 119244.000000
3672 12129 1 0.16500 119244.000000
3672 12879 1 0.16500 119244.000000
3673 12129 1 0.16500 119244.000000
3673 14145 1 0.16500 119244.000000
3674 12129 1 0.16500 119244.000000
3674 13897 1 0.16500 119244.000000
3675 12129 1 0.16500 119244.000000
3675 14193 1 0.16500 119244.000000
3676 15978 1 0.16500 119244.000000
3676 20337 1 0.16500 119244.000000
3677 20337 1 0.16500 119244.000000
3677 23982 1 0.16500 119244.000000
3678 12130 1 0.16500 119244.000000
3678 15131 1 0.16500 119244.000000
3679 12130 1 0.16500 119244.000000
3679 12500 1 0.16500 119244.000000
3680 12130 1 0.16500 119244.000000
3680 15261 1 0.16500 119244.000000
3681 12131 1 0.16500 119244.000000
3681 15205 1 0.16500 119244.000000
3682 12131 1 0.16500 119244.000000
3682 13552 1 0.16500 119244.000000
3683 12132 1 0.16500 119244.000000
3683 15575 1 0.16500 119244.000000
3684 12132 1 0.16500 119244.000000
3684 15803 1 0.16500 119244.000000
3685 12132 1 0.16500 119244.000000
3685 15164 1 0.16500 119244.000000
3686 12133 1 0.16500 119244.000000
3686 21237 1 0.16500 119244.000000
3687 12133 1 0.16500 119244.000000
3687 12306 1 0.16500 119244.000000
3688 12134 1 0.16500 119244.000000
3688 12559 1 0.16500 119244.000000
3689 12134 1 0.16500 119244.000000
3689 15333 1 0.16500 119244.000000
3690 12134 1 0.16500 119244.000000
3690 15602 1 0.16500 119244.000000
3691 12135 1 0.16500 119244.000000
3691 14074 1 0.16500 119244.000000
3692 12135 1 0.16500 119244.000000
3692 15000 1 0.16500 119244.000000
3693 12135 1 0.16500 119244.000000
3693 12862 1 0.16500 119244.000000
3694 12136 1 0.16500 119244.000000
3694 15996 1 0.16500 119244.000000
3695 11377 1 0.16500 119244.000000
3695 12136 1 0.16500 119244.000000
3696 12136 1 0.16500 119244.000000
3696 14461 1 0.16500 119244.000000
3697 12136 1 0.16500 119244.000000
3697 16013 1 0.16500 119244.000000
3698 12137 1 0.16500 119244.000000
3698 13453 1 0.16500 119244.000000
3699 12137 1 0.16500 119244.000000
3699 13400 1 0.16500 119244.000000
3700 12137 1 0.16500 119244.000000
3700 14805 1 0.16500 119244.000000
3701 12137 1 0.16500 119244.000000
3701 12374 1 0.16500 119244.000000
3702 12138 1 0.16500 119244.000000
3702 13067 1 0.16500 119244.000000
3703 12138 1 0.16500 119244.000000
3703 13591 1 0.16500 119244.000000
3704 12139 1 0.16500 119244.000000
3704 14550 1 0.16500 119244.000000
3705 12139 1 0.16500 119244.000000
3705 15525 1 0.16500 119244.000000
3706 12139 1 0.16500 119244.000000
3706 12203 1 0.16500 119244.000000
3707 12139 1 0.16500 119244.000000
3707 13338 1 0.16500 119244.000000
3708 12847 1 0.16500 119244.000000
3708 13775 1 0.16500 119244.000000
3709 12140 1 0.16500 119244.000000
3709 12847 1 0.16500 119244.000000
3710 12140 1 0.16500 119244.000000
3710 16153 1 0.16500 119244.000000
3711 12140 1 0.16500 119244.000000
3711 15661 1 0.16500 119244.000000
3712 12141 1 0.16500 119244.000000
3712 13072 1 0.16500 119244.000000
3713 12141 1 0.16500 119244.000000
3713 12517 1 0.16500 119244.000000
3714 13072 1 0.16500 119244.000000
3714 13754 1 0.16500 119244.000000
3715 12141 1 0.16500 119244.000000
3715 14787 1 0.16500 119244.000000
3716 12142 1 0.16500 119244.000000
3716 15550 1 0.16500 119244.000000
3717 12142 1 0.16500 119244.000000
3717 12578 1 0.16500 119244.000000
3718 12142 1 0.16500 119244.000000
3718 15792 1 0.16500 119244.000000
3719 12142 1 0.16500 119244.000000
3719 13115 1 0.16500 119244.000000
3720 12143 1 0.16500 119244.000000
3720 13305 1 0.16500 119244.000000
3721 12143 1 0.16500 119244.000000
3721 12352 1 0.16500 119244.000000
3722 12143 1 0.16500 119244.000000
3722 13721 1 0.16500 119244.000000
3723 12144 1 0.16500 119244.000000
3723 13962 1 0.16500 119244.000000
3724 12144 1 0.16500 119244.000000
3724 13671 1 0.16500 119244.000000
3725 12144 1 0.16500 119244.000000
3725 12459 1 0.16500 119244.000000
3726 12145 1 0.16500 119244.000000
3726 15127 1 0.16500 119244.000000
3727 12145 1 0.16500 119244.000000
3727 24216 1 0.16500 119244.000000
3728 12146 1 0.16500 119244.000000
3728 13141 1 0.16500 119244.000000
3729 12981 1 0.16500 119244.000000
3729 13141 1 0.16500 119244.000000
3730 12146 1 0.16500 119244.000000
3730 14961 1 0.16500 119244.000000
3731 12146 1 0.16500 119244.000000
3731 15841 1 0.16500 119244.000000
3732 12147 1 0.16500 119244.000000
3732 16073 1 0.16500 119244.000000
3733 12147 1 0.16500 119244.000000
3733 12698 1 0.16500 119244.000000
3734 12147 1 0.16500 119244.000000
3734 14051 1 0.16500 119244.000000
3735 12147 1 0.16500 119244.000000
3735 16112 1 0.16500 119244.000000
3736 20349 1 0.16500 119244.000000
3736 24603 1 0.16500 119244.000000
3737 15547 1 0.16500 119244.000000
3737 20349 1 0.16500 119244.000000
3738 12148 1 0.16500 119244.000000
3738 24609 1 0.16500 119244.000000
3739 12046 1 0.16500 119244.000000
3739 12148 1 0.16500 119244.000000
3740 12148 1 0.16500 119244.000000
3740 24192 1 0.16500 119244.000000
3741 12149 1 0.16500 119244.000000
3741 14019 1 0.16500 119244.000000
3742 12149 1 0.16500 119244.000000
3742 15713 1 0.16500 119244.000000
3743 12149 1 0.16500 119244.000000
3743 12654 1 0.16500 119244.000000
3744 12149 1 0.16500 119244.000000
3744 15185 1 0.16500 119244.000000
3745 12150 1 0.16500 119244.000000
3745 14569 1 0.16500 119244.000000
3746 12150 1 0.16500 119244.000000
3746 16158 1 0.16500 119244.000000
3747 12150 1 0.16500 119244.000000
3747 12811 1 0.16500 119244.000000
3748 12150 1 0.16500 119244.000000
3748 16099 1 0.16500 119244.000000
3749 12151 1 0.16500 119244.000000
3749 12677 1 0.16500 119244.000000
3750 12151 1 0.16500 119244.000000
3750 16113 1 0.16500 119244.000000
3751 12152 1 0.16500 119244.000000
3751 21273 1 0.16500 119244.000000
3752 12152 1 0.16500 119244.000000
3752 16050 1 0.16500 119244.000000
3753 12152 1 0.16500 119244.000000
3753 12520 1 0.16500 119244.000000
3754 12152 1 0.16500 119244.000000
3754 12199 1 0.16500 119244.000000
3755 12153 1 0.16500 119244.000000
3755 13358 1 0.16500 119244.000000
3756 12153 1 0.16500 119244.000000
3756 13944 1 0.16500 119244.000000
3757 12153 1 0.16500 119244.000000
3757 15802 1 0.16500 119244.000000
3758 12153 1 0.16500 119244.000000
3758 12416 1 0.16500 119244.000000
3759 11834 1 0.16500 119244.000000
3759 12380 1 0.16500 119244.000000
3760 12154 1 0.16500 119244.000000
3760 14562 1 0.16500 119244.000000
3761 12154 1 0.16500 119244.000000
3761 15920 1 0.16500 119244.000000
3762 12155 1 0.16500 119244.000000
3762 13097 1 0.16500 119244.000000
3763 12155 1 0.16500 119244.000000
3763 15728 1 0.16500 119244.000000
3764 12156 1 0.16500 119244.000000
3764 13885 1 0.16500 119244.000000
3765 12156 1 0.16500 119244.000000
3765 15639 1 0.16500 119244.000000
3766 12157 1 0.16500 119244.000000
3766 13421 1 0.16500 119244.000000
3767 12157 1 0.16500 119244.000000
3767 13646 1 0.16500 119244.000000
3768 12157 1 0.16500 119244.000000
3768 14800 1 0.16500 119244.000000
3769 12157 1 0.16500 119244.000000
3769 14379 1 0.16500 119244.000000
3770 11446 1 0.16500 119244.000000
3770 15271 1 0.16500 119244.000000
3771 16679 1 0.16500 119244.000000
3771 20361 1 0.16500 119244.000000
3772 20361 1 0.16500 119244.000000
3772 23541 1 0.16500 119244.000000
3773 12159 1 0.16500 119244.000000
3773 23193 1 0.16500 119244.000000
3774 12159 1 0.16500 119244.000000
3774 13365 1 0.16500 119244.000000
3775 12159 1 0.16500 119244.000000
3775 24549 1 0.16500 119244.000000
3776 12160 1 0.16500 119244.000000
3776 24606 1 0.16500 119244.000000
3777 12160 1 0.16500 119244.000000
3777 12558 1 0.16500 119244.000000
3778 12160 1 0.16500 119244.000000
3778 12574 1 0.16500 119244.000000
3779 12160 1 0.16500 119244.000000
3779 22341 1 0.16500 119244.000000
3780 12161 1 0.16500 119244.000000
3780 15153 1 0.16500 119244.000000
3781 12161 1 0.16500 119244.000000
3781 13953 1 0.16500 119244.000000
3782 12161 1 0.16500 119244.000000
3782 15237 1 0.16500 119244.000000
3783 12161 1 0.16500 119244.000000
3783 12407 1 0.16500 119244.000000
3784 12162 1 0.16500 119244.000000
3784 15905 1 0.16500 119244.000000
3785 12162 1 0.16500 119244.000000
3785 15615 1 0.16500 119244.000000
3786 12162 1 0.16500 119244.000000
3786 13239 1 0.16500 119244.000000
3787 12163 1 0.16500 119244.000000
3787 13013 1 0.16500 119244.000000
3788 12163 1 0.16500 119244.000000
3788 12168 1 0.16500 119244.000000
3789 12163 1 0.16500 119244.000000
3789 12741 1 0.16500 119244.000000
3790 12164 1 0.16500 119244.000000
3790 12832 1 0.16500 119244.000000
3791 12164 1 0.16500 119244.000000
3791 14787 1 0.16500 119244.000000
3792 12164 1 0.16500 119244.000000
3792 14240 1 0.16500 119244.000000
3793 12165 1 0.16500 119244.000000
3793 14319 1 0.16500 119244.000000
3794 12165 1 0.16500 119244.000000
3794 12612 1 0.16500 119244.000000
3795 12165 1 0.16500 119244.000000
3795 15659 1 0.16500 119244.000000
3796 11555 1 0.16500 119244.000000
3796 12165 1 0.16500 119244.000000
3797 12166 1 0.16500 119244.000000
3797 13111 1 0.16500 119244.000000
3798 12166 1 0.16500 119244.000000
3798 12347 1 0.16500 119244.000000
3799 12166 1 0.16500 119244.000000
3799 12965 1 0.16500 119244.000000
3800 12166 1 0.16500 119244.000000
3800 15914 1 0.16500 119244.000000
3801 12167 1 0.16500 119244.000000
3801 15536 1 0.16500 119244.000000
3802 12167 1 0.16500 119244.000000
3802 12761 1 0.16500 119244.000000
3803 12167 1 0.16500 119244.000000
3803 13377 1 0.16500 119244.000000
3804 12167 1 0.16500 119244.000000
3804 13397 1 0.16500 119244.000000
3805 12163 1 0.16500 119244.000000
3805 12188 1 0.16500 119244.000000
3806 12168 1 0.16500 119244.000000
3806 12626 1 0.16500 119244.000000
3807 12168 1 0.16500 119244.000000
3807 14758 1 0.16500 119244.000000
3808 12169 1 0.16500 119244.000000
3808 14745 1 0.16500 119244.000000
3809 12169 1 0.16500 119244.000000
3809 14456 1 0.16500 119244.000000
3810 12169 1 0.16500 119244.000000
3810 12474 1 0.16500 119244.000000
3811 12169 1 0.16500 119244.000000
3811 13778 1 0.16500 119244.000000
3812 14213 1 0.16500 119244.000000
3812 16165 1 0.16500 119244.000000
3813 12170 1 0.16500 119244.000000
3813 12945 1 0.16500 119244.000000
3814 12170 1 0.16500 119244.000000
3814 16022 1 0.16500 119244.000000
3815 12170 1 0.16500 119244.000000
3815 14213 1 0.16500 119244.000000
3816 12171 1 0.16500 119244.000000
3816 14127 1 0.16500 119244.000000
3817 12171 1 0.16500 119244.000000
3817 13490 1 0.16500 119244.000000
3818 12171 1 0.16500 119244.000000
3818 13050 1 0.16500 119244.000000
3819 12172 1 0.16500 119244.000000
3819 13685 1 0.16500 119244.000000
3820 12172 1 0.16500 119244.000000
3820 14310 1 0.16500 119244.000000
3821 12172 1 0.16500 119244.000000
3821 13654 1 0.16500 119244.000000
3822 12172 1 0.16500 119244.000000
3822 14682 1 0.16500 119244.000000
3823 12173 1 0.16500 119244.000000
3823 14778 1 0.16500 119244.000000
3824 12173 1 0.16500 119244.000000
3824 14200 1 0.16500 119244.000000
3825 12173 1 0.16500 119244.000000
3825 14391 1 0.16500 119244.000000
3826 12174 1 0.16500 119244.000000
3826 15517 1 0.16500 119244.000000
3827 12174 1 0.16500 119244.000000
3827 13688 1 0.16500 119244.000000
3828 12174 1 0.16500 119244.000000
3828 12714 1 0.16500 119244.000000
3829 12175 1 0.16500 119244.000000
3829 15943 1 0.16500 119244.000000
3830 12175 1 0.16500 119244.000000
3830 14763 1 0.16500 119244.000000
3831 12175 1 0.16500 119244.000000
3831 14402 1 0.16500 119244.000000
3832 12176 1 0.16500 119244.000000
3832 19401 1 0.16500 119244.000000
3833 13860 1 0.16500 119244.000000
3833 16082 1 0.16500 119244.000000
3834 12176 1 0.16500 119244.000000
3834 24057 1 0.16500 119244.000000
3835 12177 1 0.16500 119244.000000
3835 15261 1 0.16500 119244.000000
3836 12177 1 0.16500 119244.000000
3836 13698 1 0.16500 119244.000000
3837 12177 1 0.16500 119244.000000
3837 16037 1 0.16500 119244.000000
3838 12178 1 0.16500 119244.000000
3838 13923 1 0.16500 119244.000000
3839 12178 1 0.16500 119244.000000
3839 13379 1 0.16500 119244.000000
3840 12178 1 0.16500 119244.000000
3840 13666 1 0.16500 119244.000000
3841 12178 1 0.16500 119244.000000
3841 15837 1 0.16500 119244.000000
3842 12179 1 0.16500 119244.000000
3842 12706 1 0.16500 119244.000000
3843 12179 1 0.16500 119244.000000
3843 14482 1 0.16500 119244.000000
3844 12179 1 0.16500 119244.000000
3844 15542 1 0.16500 119244.000000
3845 12180 1 0.16500 119244.000000
3845 23565 1 0.16500 119244.000000
3846 12180 1 0.16500 119244.000000
3846 14997 1 0.16500 119244.000000
3847 12180 1 0.16500 119244.000000
3847 21609 1 0.16500 119244.000000
3848 12180 1 0.16500 119244.000000
3848 15819 1 0.16500 119244.000000
3849 12181 1 0.16500 119244.000000
3849 13369 1 0.16500 119244.000000
3850 12181 1 0.16500 119244.000000
3850 12492 1 0.16500 119244.000000
3851 12181 1 0.16500 119244.000000
3851 12774 1 0.16500 119244.000000
3852 12182 1 0.16500 119244.000000
3852 13133 1 0.16500 119244.000000
3853 12182 1 0.16500 119244.000000
3853 14642 1 0.16500 119244.000000
3854 12182 1 0.16500 119244.000000
3854 15876 1 0.16500 119244.000000
3855 12183 1 0.16500 119244.000000
3855 15563 1 0.16500 119244.000000
3856 12183 1 0.16500 119244.000000
3856 14169 1 0.16500 119244.000000
3857 12183 1 0.16500 119244.000000
3857 15678 1 0.16500 119244.000000
3858 12183 1 0.16500 119244.000000
3858 13409 1 0.16500 119244.000000
3859 12184 1 0.16500 119244.000000
3859 13092 1 0.16500 119244.000000
3860 12184 1 0.16500 119244.000000
3860 15917 1 0.16500 119244.000000
3861 12184 1 0.16500 119244.000000
3861 15750 1 0.16500 119244.000000
3862 12184 1 0.16500 119244.000000
3862 13670 1 0.16500 119244.000000
3863 12185 1 0.16500 119244.000000
3863 13832 1 0.16500 119244.000000
3864 12185 1 0.16500 119244.000000
3864 15212 1 0.16500 119244.000000
3865 12185 1 0.16500 119244.000000
3865 16078 1 0.16500 119244.000000
3866 12185 1 0.16500 119244.000000
3866 15232 1 0.16500 119244.000000
3867 12186 1 0.16500 119244.000000
3867 13111 1 0.16500 119244.000000
3868 12186 1 0.16500 119244.000000
3868 15073 1 0.16500 119244.000000
3869 12187 1 0.16500 119244.000000
3869 15302 1 0.16500 119244.000000
3870 12188 1 0.16500 119244.000000
3870 15744 1 0.16500 119244.000000
3871 12188 1 0.16500 119244.000000
3871 13096 1 0.16500 119244.000000
3872 12188 1 0.16500 119244.000000
3872 12812 1 0.16500 119244.000000
3873 12189 1 0.16500 119244.000000
3873 13082 1 0.16500 119244.000000
3874 12189 1 0.16500 119244.000000
3874 14301 1 0.16500 119244.000000
3875 12189 1 0.16500 119244.000000
3875 14786 1 0.16500 119244.000000
3876 12189 1 0.16500 119244.000000
3876 12662 1 0.16500 119244.000000
3877 12756 1 0.16500 119244.000000
3877 20373 1 0.16500 119244.000000
3878 20373 1 0.16500 119244.000000
3878 24243 1 0.16500 119244.000000
3879 20385 1 0.16500 119244.000000
3879 24153 1 0.16500 119244.000000
3880 20385 1 0.16500 119244.000000
3880 23673 1 0.16500 119244.000000
3881 15077 1 0.16500 119244.000000
3881 20385 1 0.16500 119244.000000
3882 12190 1 0.16500 119244.000000
3882 14535 1 0.16500 119244.000000
3883 12190 1 0.16500 119244.000000
3883 13740 1 0.16500 119244.000000
3884 12190 1 0.16500 119244.000000
3884 13078 1 0.16500 119244.000000
3885 12190 1 0.16500 119244.000000
3885 23907 1 0.16500 119244.000000
3886 12191 1 0.16500 119244.000000
3886 14489 1 0.16500 119244.000000
3887 12191 1 0.16500 119244.000000
3887 15219 1 0.16500 119244.000000
3888 12191 1 0.16500 119244.000000
3888 15603 1 0.16500 119244.000000
3889 12192 1 0.16500 119244.000000
3889 15496 1 0.16500 119244.000000
3890 12192 1 0.16500 119244.000000
3890 13110 1 0.16500 119244.000000
3891 12192 1 0.16500 119244.000000
3891 14020 1 0.16500 119244.000000
3892 12193 1 0.16500 119244.000000
3892 13204 1 0.16500 119244.000000
3893 12193 1 0.16500 119244.000000
3893 12304 1 0.16500 119244.000000
3894 12193 1 0.16500 119244.000000
3894 15169 1 0.16500 119244.000000
3895 12194 1 0.16500 119244.000000
3895 15387 1 0.16500 119244.000000
3896 12194 1 0.16500 119244.000000
3896 14276 1 0.16500 119244.000000
3897 12194 1 0.16500 119244.000000
3897 14292 1 0.16500 119244.000000
3898 12194 1 0.16500 119244.000000
3898 15098 1 0.16500 119244.000000
3899 12195 1 0.16500 119244.000000
3899 24249 1 0.16500 119244.000000
3900 12195 1 0.16500 119244.000000
3900 13049 1 0.16500 119244.000000
3901 12195 1 0.16500 119244.000000
3901 16145 1 0.16500 119244.000000
3902 12196 1 0.16500 119244.000000
3902 14021 1 0.16500 119244.000000
3903 12196 1 0.16500 119244.000000
3903 13568 1 0.16500 119244.000000
3904 12196 1 0.16500 119244.000000
3904 20925 1 0.16500 119244.000000
3905 12196 1 0.16500 119244.000000
3905 12221 1 0.16500 119244.000000
3906 12197 1 0.16500 119244.000000
3906 14537 1 0.16500 119244.000000
3907 12197 1 0.16500 119244.000000
3907 13206 1 0.16500 119244.000000
3908 12197 1 0.16500 119244.000000
3908 14866 1 0.16500 119244.000000
3909 12197 1 0.16500 119244.000000
3909 12469 1 0.16500 119244.000000
3910 12198 1 0.16500 119244.000000
3910 14989 1 0.16500 119244.000000
3911 12198 1 0.16500 119244.000000
3911 14092 1 0.16500 119244.000000
3912 12198 1 0.16500 119244.000000
3912 12466 1 0.16500 119244.000000
3913 12199 1 0.16500 119244.000000
3913 14370 1 0.16500 119244.000000
3914 12199 1 0.16500 119244.000000
3914 23181 1 0.16500 119244.000000
3915 12200 1 0.16500 119244.000000
3915 14187 1 0.16500 119244.000000
3916 12200 1 0.16500 119244.000000
3916 15030 1 0.16500 119244.000000
3917 12200 1 0.16500 119244.000000
3917 12697 1 0.16500 119244.000000
3918 12200 1 0.16500 119244.000000
3918 16192 1 0.16500 119244.000000
3919 13649 1 0.16500 119244.000000
3919 14147 1 0.16500 119244.000000
3920 12201 1 0.16500 119244.000000
3920 13649 1 0.16500 119244.000000
3921 12201 1 0.16500 119244.000000
3921 16129 1 0.16500 119244.000000
3922 22881 1 0.16500 119244.000000
3922 23469 1 0.16500 119244.000000
3923 12202 1 0.16500 119244.000000
3923 23469 1 0.16500 119244.000000
3924 12203 1 0.16500 119244.000000
3924 15054 1 0.16500 119244.000000
3925 12203 1 0.16500 119244.000000
3925 14894 1 0.16500 119244.000000
3926 12203 1 0.16500 119244.000000
3926 13818 1 0.16500 119244.000000
3927 12204 1 0.16500 119244.000000
3927 24117 1 0.16500 119244.000000
3928 12204 1 0.16500 119244.000000
3928 14328 1 0.16500 119244.000000
3929 13053 1 0.16500 119244.000000
3929 20397 1 0.16500 119244.000000
3930 20397 1 0.16500 119244.000000
3930 23529 1 0.16500 119244.000000
3931 12205 1 0.16500 119244.000000
3931 14248 1 0.16500 119244.000000
3932 12205 1 0.16500 119244.000000
3932 15202 1 0.16500 119244.000000
3933 12205 1 0.16500 119244.000000
3933 14298 1 0.16500 119244.000000
3934 12205 1 0.16500 119244.000000
3934 13637 1 0.16500 119244.000000
3935 13044 1 0.16500 119244.000000
3935 24120 1 0.16500 119244.000000
3936 13044 1 0.16500 119244.000000
3936 20409 1 0.16500 119244.000000
3937 12206 1 0.16500 119244.000000
3937 13100 1 0.16500 119244.000000
3938 12206 1 0.16500 119244.000000
3938 13507 1 0.16500 119244.000000
3939 12207 1 0.16500 119244.000000
3939 14626 1 0.16500 119244.000000
3940 12207 1 0.16500 119244.000000
3940 12809 1 0.16500 119244.000000
3941 12207 1 0.16500 119244.000000
3941 13744 1 0.16500 119244.000000
3942 12207 1 0.16500 119244.000000
3942 15287 1 0.16500 119244.000000
3943 12208 1 0.16500 119244.000000
3943 13486 1 0.16500 119244.000000
3944 12208 1 0.16500 119244.000000
3944 12939 1 0.16500 119244.000000
3945 12208 1 0.16500 119244.000000
3945 14938 1 0.16500 119244.000000
3946 12209 1 0.16500 119244.000000
3946 24213 1 0.16500 119244.000000
3947 12210 1 0.16500 119244.000000
3947 13614 1 0.16500 119244.000000
3948 12210 1 0.16500 119244.000000
3948 13226 1 0.16500 119244.000000
3949 12210 1 0.16500 119244.000000
3949 14493 1 0.16500 119244.000000
3950 12211 1 0.16500 119244.000000
3950 12564 1 0.16500 119244.000000
3951 12211 1 0.16500 119244.000000
3951 14403 1 0.16500 119244.000000
3952 12211 1 0.16500 119244.000000
3952 12889 1 0.16500 119244.000000
3953 12211 1 0.16500 119244.000000
3953 13462 1 0.16500 119244.000000
3954 12212 1 0.16500 119244.000000
3954 13306 1 0.16500 119244.000000
3955 12212 1 0.16500 119244.000000
3955 13754 1 0.16500 119244.000000
3956 13306 1 0.16500 119244.000000
3956 17729 1 0.16500 119244.000000
3957 12212 1 0.16500 119244.000000
3957 13072 1 0.16500 119244.000000
3958 12213 1 0.16500 119244.000000
3958 14232 1 0.16500 119244.000000
3959 12213 1 0.16500 119244.000000
3959 14391 1 0.16500 119244.000000
3960 12214 1 0.16500 119244.000000
3960 14079 1 0.16500 119244.000000
3961 12214 1 0.16500 119244.000000
3961 12371 1 0.16500 119244.000000
3962 12215 1 0.16500 119244.000000
3962 13495 1 0.16500 119244.000000
3963 12215 1 0.16500 119244.000000
3963 14452 1 0.16500 119244.000000
3964 12215 1 0.16500 119244.000000
3964 12905 1 0.16500 119244.000000
3965 12215 1 0.16500 119244.000000
3965 14758 1 0.16500 119244.000000
3966 12216 1 0.16500 119244.000000
3966 13959 1 0.16500 119244.000000
3967 12216 1 0.16500 119244.000000
3967 14996 1 0.16500 119244.000000
3968 12216 1 0.16500 119244.000000
3968 14044 1 0.16500 119244.000000
3969 12216 1 0.16500 119244.000000
3969 13459 1 0.16500 119244.000000
3970 12217 1 0.16500 119244.000000
3970 15089 1 0.16500 119244.000000
3971 12217 1 0.16500 119244.000000
3971 12230 1 0.16500 119244.000000
3972 11593 1 0.16500 119244.000000
3972 13290 1 0.16500 119244.000000
3973 12218 1 0.16500 119244.000000
3973 12860 1 0.16500 119244.000000
3974 12218 1 0.16500 119244.000000
3974 24540 1 0.16500 119244.000000
3975 12218 1 0.16500 119244.000000
3975 14618 1 0.16500 119244.000000
3976 12218 1 0.16500 119244.000000
3976 18065 1 0.16500 119244.000000
3977 12219 1 0.16500 119244.000000
3977 14276 1 0.16500 119244.000000
3978 12219 1 0.16500 119244.000000
3978 15180 1 0.16500 119244.000000
3979 12220 1 0.16500 119244.000000
3979 13712 1 0.16500 119244.000000
3980 12220 1 0.16500 119244.000000
3980 12988 1 0.16500 119244.000000
3981 12220 1 0.16500 119244.000000
3981 14331 1 0.16500 119244.000000
3982 12221 1 0.16500 119244.000000
3982 16072 1 0.16500 119244.000000
3983 12221 1 0.16500 119244.000000
3983 23553 1 0.16500 119244.000000
3984 12221 1 0.16500 119244.000000
3984 13496 1 0.16500 119244.000000
3985 12222 1 0.16500 119244.000000
3985 14170 1 0.16500 119244.000000
3986 12222 1 0.16500 119244.000000
3986 16199 1 0.16500 119244.000000
3987 12222 1 0.16500 119244.000000
3987 15568 1 0.16500 119244.000000
3988 12222 1 0.16500 119244.000000
3988 14471 1 0.16500 119244.000000
3989 12223 1 0.16500 119244.000000
3989 15172 1 0.16500 119244.000000
3990 12223 1 0.16500 119244.000000
3990 13045 1 0.16500 119244.000000
3991 12223 1 0.16500 119244.000000
3991 13954 1 0.16500 119244.000000
3992 12223 1 0.16500 119244.000000
3992 14295 1 0.16500 119244.000000
3993 12224 1 0.16500 119244.000000
3993 18317 1 0.16500 119244.000000
3994 12224 1 0.16500 119244.000000
3994 12930 1 0.16500 119244.000000
3995 12224 1 0.16500 119244.000000
3995 14780 1 0.16500 119244.000000
3996 12224 1 0.16500 119244.000000
3996 12858 1 0.16500 119244.000000
3997 12225 1 0.16500 119244.000000
3997 16097 1 0.16500 119244.000000
3998 12225 1 0.16500 119244.000000
3998 13971 1 0.16500 119244.000000
3999 12225 1 0.16500 119244.000000
3999 13867 1 0.16500 119244.000000
4000 12226 1 0.16500 119244.000000
4000 14290 1 0.16500 119244.000000
4001 12226 1 0.16500 119244.000000
4001 14296 1 0.16500 119244.000000
4002 12226 1 0.16500 119244.000000
4002 15211 1 0.16500 119244.000000
4003 12227 1 0.16500 119244.000000
4003 15486 1 0.16500 119244.000000
4004 12227 1 0.16500 119244.000000
4004 15831 1 0.16500 119244.000000
4005 12228 1 0.16500 119244.000000
4005 13396 1 0.16500 119244.000000
4006 12228 1 0.16500 119244.000000
4006 15471 1 0.16500 119244.000000
4007 12228 1 0.16500 119244.000000
4007 14233 1 0.16500 119244.000000
4008 12228 1 0.16500 119244.000000
4008 14261 1 0.16500 119244.000000
4009 12229 1 0.16500 119244.000000
4009 15173 1 0.16500 119244.000000
4010 11944 1 0.16500 119244.000000
4010 12229 1 0.16500 119244.000000
4011 12229 1 0.16500 119244.000000
4011 13791 1 0.16500 119244.000000
4012 12230 1 0.16500 119244.000000
4012 13418 1 0.16500 119244.000000
4013 12230 1 0.16500 119244.000000
4013 12731 1 0.16500 119244.000000
4014 12231 1 0.16500 119244.000000
4014 17729 1 0.16500 119244.000000
4015 12231 1 0.16500 119244.000000
4015 12966 1 0.16500 119244.000000
4016 12231 1 0.16500 119244.000000
4016 13216 1 0.16500 119244.000000
4017 14480 1 0.16500 119244.000000
4017 20421 1 0.16500 119244.000000
4018 20421 1 0.16500 119244.000000
4018 24240 1 0.16500 119244.000000
4019 12232 1 0.16500 119244.000000
4019 14371 1 0.16500 119244.000000
4020 12232 1 0.16500 119244.000000
4020 14632 1 0.16500 119244.000000
4021 12232 1 0.16500 119244.000000
4021 15956 1 0.16500 119244.000000
4022 12565 1 0.16500 119244.000000
4022 15747 1 0.16500 119244.000000
4023 12233 1 0.16500 119244.000000
4023 22929 1 0.16500 119244.000000
4024 12233 1 0.16500 119244.000000
4024 12618 1 0.16500 119244.000000
4025 12233 1 0.16500 119244.000000
4025 15747 1 0.16500 119244.000000
4026 12234 1 0.16500 119244.000000
4026 12961 1 0.16500 119244.000000
4027 12961 1 0.16500 119244.000000
4027 15957 1 0.16500 119244.000000
4028 13052 1 0.16500 119244.000000
4028 20433 1 0.16500 119244.000000
4029 15884 1 0.16500 119244.000000
4029 20433 1 0.16500 119244.000000
4030 11430 1 0.16500 119244.000000
4030 14560 1 0.16500 119244.000000
4031 12235 1 0.16500 119244.000000
4031 24399 1 0.16500 119244.000000
4032 12235 1 0.16500 119244.000000
4032 20901 1 0.16500 119244.000000
4033 20445 1 0.16500 119244.000000
4033 24201 1 0.16500 119244.000000
4034 13658 1 0.16500 119244.000000
4034 20445 1 0.16500 119244.000000
4035 12236 1 0.16500 119244.000000
4035 14193 1 0.16500 119244.000000
4036 13151 1 0.16500 119244.000000
4036 15222 1 0.16500 119244.000000
4037 12236 1 0.16500 119244.000000
4037 16162 1 0.16500 119244.000000
4038 12236 1 0.16500 119244.000000
4038 15222 1 0.16500 119244.000000
4039 12237 1 0.16500 119244.000000
4039 14902 1 0.16500 119244.000000
4040 12237 1 0.16500 119244.000000
4040 13931 1 0.16500 119244.000000
4041 20457 1 0.16500 119244.000000
4041 24384 1 0.16500 119244.000000
4042 15246 1 0.16500 119244.000000
4042 20457 1 0.16500 119244.000000
4043 12238 1 0.16500 119244.000000
4043 15095 1 0.16500 119244.000000
4044 12238 1 0.16500 119244.000000
4044 12257 1 0.16500 119244.000000
4045 12238 1 0.16500 119244.000000
4045 15851 1 0.16500 119244.000000
4046 12239 1 0.16500 119244.000000
4046 12412 1 0.16500 119244.000000
4047 12239 1 0.16500 119244.000000
4047 12913 1 0.16500 119244.000000
4048 12239 1 0.16500 119244.000000
4048 13471 1 0.16500 119244.000000
4049 12240 1 0.16500 119244.000000
4049 14751 1 0.16500 119244.000000
4050 12240 1 0.16500 119244.000000
4050 18093 1 0.16500 119244.000000
4051 12240 1 0.16500 119244.000000
4051 17939 1 0.16500 119244.000000
4052 12240 1 0.16500 119244.000000
4052 14428 1 0.16500 119244.000000
4053 12241 1 0.16500 119244.000000
4053 14627 1 0.16500 119244.000000
4054 12241 1 0.16500 119244.000000
4054 13241 1 0.16500 119244.000000
4055 12241 1 0.16500 119244.000000
4055 14457 1 0.16500 119244.000000
4056 12242 1 0.16500 119244.000000
4056 13586 1 0.16500 119244.000000
4057 12242 1 0.16500 119244.000000
4057 24141 1 0.16500 119244.000000
4058 12242 1 0.16500 119244.000000
4058 15177 1 0.16500 119244.000000
4059 12243 1 0.16500 119244.000000
4059 13421 1 0.16500 119244.000000
4060 12243 1 0.16500 119244.000000
4060 17575 1 0.16500 119244.000000
4061 12243 1 0.16500 119244.000000
4061 12548 1 0.16500 119244.000000
4062 12244 1 0.16500 119244.000000
4062 15195 1 0.16500 119244.000000
4063 12244 1 0.16500 119244.000000
4063 15307 1 0.16500 119244.000000
4064 12244 1 0.16500 119244.000000
4064 13581 1 0.16500 119244.000000
4065 12244 1 0.16500 119244.000000
4065 12285 1 0.16500 119244.000000
4066 12245 1 0.16500 119244.000000
4066 15398 1 0.16500 119244.000000
4067 11796 1 0.16500 119244.000000
4067 15398 1 0.16500 119244.000000
4068 12245 1 0.16500 119244.000000
4068 14358 1 0.16500 119244.000000
4069 12246 1 0.16500 119244.000000
4069 13905 1 0.16500 119244.000000
4070 12247 1 0.16500 119244.000000
4070 14957 1 0.16500 119244.000000
4071 12247 1 0.16500 119244.000000
4071 15040 1 0.16500 119244.000000
4072 12247 1 0.16500 119244.000000
4072 12451 1 0.16500 119244.000000
4073 12247 1 0.16500 119244.000000
4073 14465 1 0.16500 119244.000000
4074 12248 1 0.16500 119244.000000
4074 15829 1 0.16500 119244.000000
4075 12248 1 0.16500 119244.000000
4075 20553 1 0.16500 119244.000000
4076 12248 1 0.16500 119244.000000
4076 23931 1 0.16500 119244.000000
4077 12249 1 0.16500 119244.000000
4077 14908 1 0.16500 119244.000000
4078 12249 1 0.16500 119244.000000
4078 15266 1 0.16500 119244.000000
4079 12249 1 0.16500 119244.000000
4079 12686 1 0.16500 119244.000000
4080 12249 1 0.16500 119244.000000
4080 15591 1 0.16500 119244.000000
4081 11623 1 0.16500 119244.000000
4081 14409 1 0.16500 119244.000000
4082 12250 1 0.16500 119244.000000
4082 24240 1 0.16500 119244.000000
4083 12250 1 0.16500 119244.000000
4083 12431 1 0.16500 119244.000000
4084 12251 1 0.16500 119244.000000
4084 13545 1 0.16500 119244.000000
4085 12251 1 0.16500 119244.000000
4085 12655 1 0.16500 119244.000000
4086 12252 1 0.16500 119244.000000
4086 14905 1 0.16500 119244.000000
4087 12252 1 0.16500 119244.000000
4087 24689 1 0.16500 119244.000000
4088 12252 1 0.16500 119244.000000
4088 14350 1 0.16500 119244.000000
4089 12253 1 0.16500 119244.000000
4089 12336 1 0.16500 119244.000000
4090 12253 1 0.16500 119244.000000
4090 13587 1 0.16500 119244.000000
4091 12253 1 0.16500 119244.000000
4091 13333 1 0.16500 119244.000000
4092 12254 1 0.16500 119244.000000
4092 13647 1 0.16500 119244.000000
4093 12254 1 0.16500 119244.000000
4093 13168 1 0.16500 119244.000000
4094 12254 1 0.16500 119244.000000
4094 12848 1 0.16500 119244.000000
4095 12254 1 0.16500 119244.000000
4095 14670 1 0.16500 119244.000000
4096 12255 1 0.16500 119244.000000
4096 13190 1 0.16500 119244.000000
4097 12255 1 0.16500 119244.000000
4097 14918 1 0.16500 119244.000000
4098 12255 1 0.16500 119244.000000
4098 13284 1 0.16500 119244.000000
4099 12255 1 0.16500 119244.000000
4099 15032 1 0.16500 119244.000000
4100 12256 1 0.16500 119244.000000
4100 13136 1 0.16500 119244.000000
4101 13136 1 0.16500 119244.000000
4101 15738 1 0.16500 119244.000000
4102 17477 1 0.16500 119244.000000
4102 20469 1 0.16500 119244.000000
4103 12980 1 0.16500 119244.000000
4103 20469 1 0.16500 119244.000000
4104 12257 1 0.16500 119244.000000
4104 13083 1 0.16500 119244.000000
4105 12257 1 0.16500 119244.000000
4105 16046 1 0.16500 119244.000000
4106 12257 1 0.16500 119244.000000
4106 15823 1 0.16500 119244.000000
4107 12766 1 0.16500 119244.000000
4107 16055 1 0.16500 119244.000000
4108 12766 1 0.16500 119244.000000
4108 20481 1 0.16500 119244.000000
4109 16158 1 0.16500 119244.000000
4109 20481 1 0.16500 119244.000000
4110 15068 1 0.16500 119244.000000
4110 20481 1 0.16500 119244.000000
4111 12870 1 0.16500 119244.000000
4111 16273 1 0.16500 119244.000000
4112 12258 1 0.16500 119244.000000
4112 12440 1 0.16500 119244.000000
4113 12258 1 0.16500 119244.000000
4113 13845 1 0.16500 119244.000000
4114 12259 1 0.16500 119244.000000
4114 14289 1 0.16500 119244.000000
4115 12259 1 0.16500 119244.000000
4115 14513 1 0.16500 119244.000000
4116 12259 1 0.16500 119244.000000
4116 16017 1 0.16500 119244.000000
4117 12259 1 0.16500 119244.000000
4117 15758 1 0.16500 119244.000000
4118 12260 1 0.16500 119244.000000
4118 24093 1 0.16500 119244.000000
4119 12260 1 0.16500 119244.000000
4119 24594 1 0.16500 119244.000000
4120 12261 1 0.16500 119244.000000
4120 16067 1 0.16500 119244.000000
4121 12261 1 0.16500 119244.000000
4121 14417 1 0.16500 119244.000000
4122 12261 1 0.16500 119244.000000
4122 15097 1 0.16500 119244.000000
4123 12261 1 0.16500 119244.000000
4123 13975 1 0.16500 119244.000000
4124 12262 1 0.16500 119244.000000
4124 15187 1 0.16500 119244.000000
4125 12262 1 0.16500 119244.000000
4125 15955 1 0.16500 119244.000000
4126 12262 1 0.16500 119244.000000
4126 13574 1 0.16500 119244.000000
4127 12262 1 0.16500 119244.000000
4127 15599 1 0.16500 119244.000000
4128 12263 1 0.16500 119244.000000
4128 13061 1 0.16500 119244.000000
4129 12263 1 0.16500 119244.000000
4129 15320 1 0.16500 119244.000000
4130 12264 1 0.16500 119244.000000
4130 15175 1 0.16500 119244.000000
4131 12264 1 0.16500 119244.000000
4131 12910 1 0.16500 119244.000000
4132 12265 1 0.16500 119244.000000
4132 14483 1 0.16500 119244.000000
4133 12265 1 0.16500 119244.000000
4133 12446 1 0.16500 119244.000000
4134 12265 1 0.16500 119244.000000
4134 14420 1 0.16500 119244.000000
4135 12266 1 0.16500 119244.000000
4135 13545 1 0.16500 119244.000000
4136 12266 1 0.16500 119244.000000
4136 13573 1 0.16500 119244.000000
4137 12266 1 0.16500 119244.000000
4137 12317 1 0.16500 119244.000000
4138 12267 1 0.16500 119244.000000
4138 14189 1 0.16500 119244.000000
4139 12267 1 0.16500 119244.000000
4139 15557 1 0.16500 119244.000000
4140 12267 1 0.16500 119244.000000
4140 14393 1 0.16500 119244.000000
4141 12268 1 0.16500 119244.000000
4141 14743 1 0.16500 119244.000000
4142 12268 1 0.16500 119244.000000
4142 15080 1 0.16500 119244.000000
4143 12268 1 0.16500 119244.000000
4143 12332 1 0.16500 119244.000000
4144 12268 1 0.16500 119244.000000
4144 12439 1 0.16500 119244.000000
4145 12269 1 0.16500 119244.000000
4145 15957 1 0.16500 119244.000000
4146 12269 1 0.16500 119244.000000
4146 13234 1 0.16500 119244.000000
4147 12269 1 0.16500 119244.000000
4147 15021 1 0.16500 119244.000000
4148 12269 1 0.16500 119244.000000
4148 14568 1 0.16500 119244.000000
4149 12270 1 0.16500 119244.000000
4149 15229 1 0.16500 119244.000000
4150 12270 1 0.16500 119244.000000
4150 18303 1 0.16500 119244.000000
4151 12271 1 0.16500 119244.000000
4151 14696 1 0.16500 119244.000000
4152 12271 1 0.16500 119244.000000
4152 13079 1 0.16500 119244.000000
4153 12271 1 0.16500 119244.000000
4153 13378 1 0.16500 119244.000000
4154 12272 1 0.16500 119244.000000
4154 13891 1 0.16500 119244.000000
4155 12272 1 0.16500 119244.000000
4155 15478 1 0.16500 119244.000000
4156 12272 1 0.16500 119244.000000
4156 13232 1 0.16500 119244.000000
4157 12272 1 0.16500 119244.000000
4157 13903 1 0.16500 119244.000000
4158 12273 1 0.16500 119244.000000
4158 15431 1 0.16500 119244.000000
4159 12273 1 0.16500 119244.000000
4159 15397 1 0.16500 119244.000000
4160 12274 1 0.16500 119244.000000
4160 15871 1 0.16500 119244.000000
4161 12274 1 0.16500 119244.000000
4161 14903 1 0.16500 119244.000000
4162 12274 1 0.16500 119244.000000
4162 14748 1 0.16500 119244.000000
4163 12275 1 0.16500 119244.000000
4163 14563 1 0.16500 119244.000000
4164 12275 1 0.16500 119244.000000
4164 13892 1 0.16500 119244.000000
4165 12275 1 0.16500 119244.000000
4165 15698 1 0.16500 119244.000000
4166 12275 1 0.16500 119244.000000
4166 13444 1 0.16500 119244.000000
4167 11332 1 0.16500 119244.000000
4167 20493 1 0.16500 119244.000000
4168 11332 1 0.16500 119244.000000
4168 24774 1 0.16500 119244.000000
4169 12276 1 0.16500 119244.000000
4169 14246 1 0.16500 119244.000000
4170 12276 1 0.16500 119244.000000
4170 15071 1 0.16500 119244.000000
4171 12276 1 0.16500 119244.000000
4171 13541 1 0.16500 119244.000000
4172 17309 1 0.16500 119244.000000
4172 20505 1 0.16500 119244.000000
4173 12277 1 0.16500 119244.000000
4173 14196 1 0.16500 119244.000000
4174 12277 1 0.16500 119244.000000
4174 14616 1 0.16500 119244.000000
4175 12277 1 0.16500 119244.000000
4175 12282 1 0.16500 119244.000000
4176 12278 1 0.16500 119244.000000
4176 15717 1 0.16500 119244.000000
4177 12278 1 0.16500 119244.000000
4177 14421 1 0.16500 119244.000000
4178 12278 1 0.16500 119244.000000
4178 13348 1 0.16500 119244.000000
4179 12279 1 0.16500 119244.000000
4179 12404 1 0.16500 119244.000000
4180 12279 1 0.16500 119244.000000
4180 15176 1 0.16500 119244.000000
4181 12279 1 0.16500 119244.000000
4181 13309 1 0.16500 119244.000000
4182 12280 1 0.16500 119244.000000
4182 12525 1 0.16500 119244.000000
4183 12280 1 0.16500 119244.000000
4183 15216 1 0.16500 119244.000000
4184 12281 1 0.16500 119244.000000
4184 21633 1 0.16500 119244.000000
4185 12281 1 0.16500 119244.000000
4185 24132 1 0.16500 119244.000000
4186 12282 1 0.16500 119244.000000
4186 14829 1 0.16500 119244.000000
4187 12282 1 0.16500 119244.000000
4187 14681 1 0.16500 119244.000000
4188 12282 1 0.16500 119244.000000
4188 15109 1 0.16500 119244.000000
4189 12283 1 0.16500 119244.000000
4189 13080 1 0.16500 119244.000000
4190 12283 1 0.16500 119244.000000
4190 15644 1 0.16500 119244.000000
4191 12284 1 0.16500 119244.000000
4191 12518 1 0.16500 119244.000000
4192 12284 1 0.16500 119244.000000
4192 13944 1 0.16500 119244.000000
4193 12284 1 0.16500 119244.000000
4193 12556 1 0.16500 119244.000000
4194 12285 1 0.16500 119244.000000
4194 12489 1 0.16500 119244.000000
4195 12285 1 0.16500 119244.000000
4195 15969 1 0.16500 119244.000000
4196 12285 1 0.16500 119244.000000
4196 13431 1 0.16500 119244.000000
4197 12286 1 0.16500 119244.000000
4197 13450 1 0.16500 119244.000000
4198 12286 1 0.16500 119244.000000
4198 15357 1 0.16500 119244.000000
4199 12286 1 0.16500 119244.000000
4199 13376 1 0.16500 119244.000000
4200 12286 1 0.16500 119244.000000
4200 15460 1 0.16500 119244.000000
4201 12287 1 0.16500 119244.000000
4201 13998 1 0.16500 119244.000000
4202 12287 1 0.16500 119244.000000
4202 15279 1 0.16500 119244.000000
4203 12287 1 0.16500 119244.000000
4203 14828 1 0.16500 119244.000000
4204 12287 1 0.16500 119244.000000
4204 15875 1 0.16500 119244.000000
4205 12288 1 0.16500 119244.000000
4205 16025 1 0.16500 119244.000000
4206 12288 1 0.16500 119244.000000
4206 13027 1 0.16500 119244.000000
4207 12288 1 0.16500 119244.000000
4207 16847 1 0.16500 119244.000000
4208 15877 1 0.16500 119244.000000
4208 20517 1 0.16500 119244.000000
4209 20517 1 0.16500 119244.000000
4209 24366 1 0.16500 119244.000000
4210 12289 1 0.16500 119244.000000
4210 12600 1 0.16500 119244.000000
4211 12289 1 0.16500 119244.000000
4211 12885 1 0.16500 119244.000000
4212 12289 1 0.16500 119244.000000
4212 13792 1 0.16500 119244.000000
4213 12290 1 0.16500 119244.000000
4213 13505 1 0.16500 119244.000000
4214 12290 1 0.16500 119244.000000
4214 14037 1 0.16500 119244.000000
4215 12290 1 0.16500 119244.000000
4215 15871 1 0.16500 119244.000000
4216 12290 1 0.16500 119244.000000
4216 13584 1 0.16500 119244.000000
4217 12291 1 0.16500 119244.000000
4217 15645 1 0.16500 119244.000000
4218 12291 1 0.16500 119244.000000
4218 16147 1 0.16500 119244.000000
4219 12291 1 0.16500 119244.000000
4219 14064 1 0.16500 119244.000000
4220 12291 1 0.16500 119244.000000
4220 13669 1 0.16500 119244.000000
4221 12292 1 0.16500 119244.000000
4221 24441 1 0.16500 119244.000000
4222 12292 1 0.16500 119244.000000
4222 12535 1 0.16500 119244.000000
4223 12292 1 0.16500 119244.000000
4223 12921 1 0.16500 119244.000000
4224 12292 1 0.16500 119244.000000
4224 21705 1 0.16500 119244.000000
4225 12293 1 0.16500 119244.000000
4225 13380 1 0.16500 119244.000000
4226 12293 1 0.16500 119244.000000
4226 13778 1 0.16500 119244.000000
4227 12293 1 0.16500 119244.000000
4227 13253 1 0.16500 119244.000000
4228 12293 1 0.16500 119244.000000
4228 13102 1 0.16500 119244.000000
4229 12294 1 0.16500 119244.000000
4229 13334 1 0.16500 119244.000000
4230 12294 1 0.16500 119244.000000
4230 14555 1 0.16500 119244.000000
4231 12294 1 0.16500 119244.000000
4231 13414 1 0.16500 119244.000000
4232 12295 1 0.16500 119244.000000
4232 12509 1 0.16500 119244.000000
4233 12295 1 0.16500 119244.000000
4233 14245 1 0.16500 119244.000000
4234 12295 1 0.16500 119244.000000
4234 14754 1 0.16500 119244.000000
4235 12295 1 0.16500 119244.000000
4235 15258 1 0.16500 119244.000000
4236 20529 1 0.16500 119244.000000
4236 22965 1 0.16500 119244.000000
4237 12296 1 0.16500 119244.000000
4237 13016 1 0.16500 119244.000000
4238 12296 1 0.16500 119244.000000
4238 24525 1 0.16500 119244.000000
4239 12296 1 0.16500 119244.000000
4239 13027 1 0.16500 119244.000000
4240 12296 1 0.16500 119244.000000
4240 15514 1 0.16500 119244.000000
4241 14645 1 0.16500 119244.000000
4241 20541 1 0.16500 119244.000000
4242 13729 1 0.16500 119244.000000
4242 20541 1 0.16500 119244.000000
4243 15583 1 0.16500 119244.000000
4243 20541 1 0.16500 119244.000000
4244 12297 1 0.16500 119244.000000
4244 12502 1 0.16500 119244.000000
4245 12297 1 0.16500 119244.000000
4245 12342 1 0.16500 119244.000000
4246 12297 1 0.16500 119244.000000
4246 15125 1 0.16500 119244.000000
4247 12297 1 0.16500 119244.000000
4247 14505 1 0.16500 119244.000000
4248 12298 1 0.16500 119244.000000
4248 15033 1 0.16500 119244.000000
4249 12298 1 0.16500 119244.000000
4249 13868 1 0.16500 119244.000000
4250 12298 1 0.16500 119244.000000
4250 13600 1 0.16500 119244.000000
4251 12298 1 0.16500 119244.000000
4251 15969 1 0.16500 119244.000000
4252 12299 1 0.16500 119244.000000
4252 14936 1 0.16500 119244.000000
4253 12299 1 0.16500 119244.000000
4253 12848 1 0.16500 119244.000000
4254 12299 1 0.16500 119244.000000
4254 13151 1 0.16500 119244.000000
4255 12300 1 0.16500 119244.000000
4255 14786 1 0.16500 119244.000000
4256 12300 1 0.16500 119244.000000
4256 13970 1 0.16500 119244.000000
4257 12300 1 0.16500 119244.000000
4257 15923 1 0.16500 119244.000000
4258 12300 1 0.16500 119244.000000
4258 15646 1 0.16500 119244.000000
4259 12301 1 0.16500 119244.000000
4259 13318 1 0.16500 119244.000000
4260 12301 1 0.16500 119244.000000
4260 13462 1 0.16500 119244.000000
4261 12301 1 0.16500 119244.000000
4261 14414 1 0.16500 119244.000000
4262 12302 1 0.16500 119244.000000
4262 12427 1 0.16500 119244.000000
4263 12302 1 0.16500 119244.000000
4263 14629 1 0.16500 119244.000000
4264 12302 1 0.16500 119244.000000
4264 16171 1 0.16500 119244.000000
4265 12302 1 0.16500 119244.000000
4265 15567 1 0.16500 119244.000000
4266 12303 1 0.16500 119244.000000
4266 14007 1 0.16500 119244.000000
4267 12303 1 0.16500 119244.000000
4267 13033 1 0.16500 119244.000000
4268 12303 1 0.16500 119244.000000
4268 14985 1 0.16500 119244.000000
4269 12303 1 0.16500 119244.000000
4269 14679 1 0.16500 119244.000000
4270 12304 1 0.16500 119244.000000
4270 16959 1 0.16500 119244.000000
4271 12304 1 0.16500 119244.000000
4271 13560 1 0.16500 119244.000000
4272 12305 1 0.16500 119244.000000
4272 12310 1 0.16500 119244.000000
4273 12305 1 0.16500 119244.000000
4273 15099 1 0.16500 119244.000000
4274 12305 1 0.16500 119244.000000
4274 14888 1 0.16500 119244.000000
4275 12305 1 0.16500 119244.000000
4275 14961 1 0.16500 119244.000000
4276 12306 1 0.16500 119244.000000
4276 14628 1 0.16500 119244.000000
4277 12306 1 0.16500 119244.000000
4277 16087 1 0.16500 119244.000000
4278 12307 1 0.16500 119244.000000
4278 22029 1 0.16500 119244.000000
4279 12307 1 0.16500 119244.000000
4279 15498 1 0.16500 119244.000000
4280 12307 1 0.16500 119244.000000
4280 13524 1 0.16500 119244.000000
4281 12307 1 0.16500 119244.000000
4281 17141 1 0.16500 119244.000000
4282 12308 1 0.16500 119244.000000
4282 15103 1 0.16500 119244.000000
4283 12308 1 0.16500 119244.000000
4283 16056 1 0.16500 119244.000000
4284 12309 1 0.16500 119244.000000
4284 14620 1 0.16500 119244.000000
4285 12358 1 0.16500 119244.000000
4285 14620 1 0.16500 119244.000000
4286 12309 1 0.16500 119244.000000
4286 12860 1 0.16500 119244.000000
4287 12310 1 0.16500 119244.000000
4287 14598 1 0.16500 119244.000000
4288 12310 1 0.16500 119244.000000
4288 12444 1 0.16500 119244.000000
4289 12310 1 0.16500 119244.000000
4289 14241 1 0.16500 119244.000000
4290 12311 1 0.16500 119244.000000
4290 16202 1 0.16500 119244.000000
4291 12311 1 0.16500 119244.000000
4291 12760 1 0.16500 119244.000000
4292 12311 1 0.16500 119244.000000
4292 24495 1 0.16500 119244.000000
4293 12311 1 0.16500 119244.000000
4293 12866 1 0.16500 119244.000000
4294 12312 1 0.16500 119244.000000
4294 13685 1 0.16500 119244.000000
4295 11375 1 0.16500 119244.000000
4295 13547 1 0.16500 119244.000000
4296 12312 1 0.16500 119244.000000
4296 14225 1 0.16500 119244.000000
4297 13094 1 0.16500 119244.000000
4297 20553 1 0.16500 119244.000000
4298 15697 1 0.16500 119244.000000
4298 20553 1 0.16500 119244.000000
4299 12313 1 0.16500 119244.000000
4299 14102 1 0.16500 119244.000000
4300 12313 1 0.16500 119244.000000
4300 16077 1 0.16500 119244.000000
4301 12313 1 0.16500 119244.000000
4301 14623 1 0.16500 119244.000000
4302 12314 1 0.16500 119244.000000
4302 12385 1 0.16500 119244.000000
4303 12385 1 0.16500 119244.000000
4303 14572 1 0.16500 119244.000000
4304 12314 1 0.16500 119244.000000
4304 17211 1 0.16500 119244.000000
4305 12315 1 0.16500 119244.000000
4305 14836 1 0.16500 119244.000000
4306 12315 1 0.16500 119244.000000
4306 13274 1 0.16500 119244.000000
4307 12315 1 0.16500 119244.000000
4307 13323 1 0.16500 119244.000000
4308 12315 1 0.16500 119244.000000
4308 15338 1 0.16500 119244.000000
4309 12316 1 0.16500 119244.000000
4309 12348 1 0.16500 119244.000000
4310 12316 1 0.16500 119244.000000
4310 14224 1 0.16500 119244.000000
4311 12316 1 0.16500 119244.000000
4311 15213 1 0.16500 119244.000000
4312 12317 1 0.16500 119244.000000
4312 12797 1 0.16500 119244.000000
4313 12317 1 0.16500 119244.000000
4313 15829 1 0.16500 119244.000000
4314 12318 1 0.16500 119244.000000
4314 14985 1 0.16500 119244.000000
4315 12318 1 0.16500 119244.000000
4315 13733 1 0.16500 119244.000000
4316 12318 1 0.16500 119244.000000
4316 15746 1 0.16500 119244.000000
4317 12319 1 0.16500 119244.000000
4317 15749 1 0.16500 119244.000000
4318 12319 1 0.16500 119244.000000
4318 23853 1 0.16500 119244.000000
4319 12319 1 0.16500 119244.000000
4319 13454 1 0.16500 119244.000000
4320 13454 1 0.16500 119244.000000
4320 16034 1 0.16500 119244.000000
4321 12320 1 0.16500 119244.000000
4321 13295 1 0.16500 119244.000000
4322 12320 1 0.16500 119244.000000
4322 12452 1 0.16500 119244.000000
4323 12320 1 0.16500 119244.000000
4323 14441 1 0.16500 119244.000000
4324 12320 1 0.16500 119244.000000
4324 13475 1 0.16500 119244.000000
4325 20565 1 0.16500 119244.000000
4325 23181 1 0.16500 119244.000000
4326 16050 1 0.16500 119244.000000
4326 20565 1 0.16500 119244.000000
4327 12321 1 0.16500 119244.000000
4327 12607 1 0.16500 119244.000000
4328 12321 1 0.16500 119244.000000
4328 14672 1 0.16500 119244.000000
4329 12321 1 0.16500 119244.000000
4329 14433 1 0.16500 119244.000000
4330 12321 1 0.16500 119244.000000
4330 23313 1 0.16500 119244.000000
4331 12322 1 0.16500 119244.000000
4331 14661 1 0.16500 119244.000000
4332 12124 1 0.16500 119244.000000
4332 12322 1 0.16500 119244.000000
4333 12322 1 0.16500 119244.000000
4333 15437 1 0.16500 119244.000000
4334 12322 1 0.16500 119244.000000
4334 14798 1 0.16500 119244.000000
4335 12323 1 0.16500 119244.000000
4335 14123 1 0.16500 119244.000000
4336 12323 1 0.16500 119244.000000
4336 13339 1 0.16500 119244.000000
4337 12323 1 0.16500 119244.000000
4337 15845 1 0.16500 119244.000000
4338 16259 1 0.16500 119244.000000
4338 20577 1 0.16500 119244.000000
4339 15641 1 0.16500 119244.000000
4339 20577 1 0.16500 119244.000000
4340 20577 1 0.16500 119244.000000
4340 23565 1 0.16500 119244.000000
4341 12324 1 0.16500 119244.000000
4341 14884 1 0.16500 119244.000000
4342 12324 1 0.16500 119244.000000
4342 16129 1 0.16500 119244.000000
4343 12324 1 0.16500 119244.000000
4343 14503 1 0.16500 119244.000000
4344 12324 1 0.16500 119244.000000
4344 14265 1 0.16500 119244.000000
4345 12325 1 0.16500 119244.000000
4345 14580 1 0.16500 119244.000000
4346 12325 1 0.16500 119244.000000
4346 13717 1 0.16500 119244.000000
4347 12325 1 0.16500 119244.000000
4347 13947 1 0.16500 119244.000000
4348 12325 1 0.16500 119244.000000
4348 15074 1 0.16500 119244.000000
4349 12326 1 0.16500 119244.000000
4349 21933 1 0.16500 119244.000000
4350 12326 1 0.16500 119244.000000
4350 14160 1 0.16500 119244.000000
4351 12326 1 0.16500 119244.000000
4351 15087 1 0.16500 119244.000000
4352 12326 1 0.16500 119244.000000
4352 14771 1 0.16500 119244.000000
4353 12327 1 0.16500 119244.000000
4353 13231 1 0.16500 119244.000000
4354 12327 1 0.16500 119244.000000
4354 12684 1 0.16500 119244.000000
4355 12327 1 0.16500 119244.000000
4355 14463 1 0.16500 119244.000000
4356 12327 1 0.16500 119244.000000
4356 14017 1 0.16500 119244.000000
4357 12328 1 0.16500 119244.000000
4357 15683 1 0.16500 119244.000000
4358 12328 1 0.16500 119244.000000
4358 15051 1 0.16500 119244.000000
4359 12328 1 0.16500 119244.000000
4359 13118 1 0.16500 119244.000000
4360 12328 1 0.16500 119244.000000
4360 15652 1 0.16500 119244.000000
4361 12329 1 0.16500 119244.000000
4361 15557 1 0.16500 119244.000000
4362 12329 1 0.16500 119244.000000
4362 13442 1 0.16500 119244.000000
4363 12329 1 0.16500 119244.000000
4363 17911 1 0.16500 119244.000000
4364 12329 1 0.16500 119244.000000
4364 12394 1 0.16500 119244.000000
4365 12330 1 0.16500 119244.000000
4365 15948 1 0.16500 119244.000000
4366 12330 1 0.16500 119244.000000
4366 13183 1 0.16500 119244.000000
4367 12330 1 0.16500 119244.000000
4367 24252 1 0.16500 119244.000000
4368 12330 1 0.16500 119244.000000
4368 12765 1 0.16500 119244.000000
4369 12331 1 0.16500 119244.000000
4369 14880 1 0.16500 119244.000000
4370 12331 1 0.16500 119244.000000
4370 14954 1 0.16500 119244.000000
4371 12331 1 0.16500 119244.000000
4371 12376 1 0.16500 119244.000000
4372 12332 1 0.16500 119244.000000
4372 15346 1 0.16500 119244.000000
4373 12332 1 0.16500 119244.000000
4373 15806 1 0.16500 119244.000000
4374 13033 1 0.16500 119244.000000
4374 23886 1 0.16500 119244.000000
4375 12333 1 0.16500 119244.000000
4375 14070 1 0.16500 119244.000000
4376 12333 1 0.16500 119244.000000
4376 13450 1 0.16500 119244.000000
4377 12334 1 0.16500 119244.000000
4377 14574 1 0.16500 119244.000000
4378 12334 1 0.16500 119244.000000
4378 17379 1 0.16500 119244.000000
4379 12334 1 0.16500 119244.000000
4379 15399 1 0.16500 119244.000000
4380 12335 1 0.16500 119244.000000
4380 15642 1 0.16500 119244.000000
4381 12335 1 0.16500 119244.000000
4381 12506 1 0.16500 119244.000000
4382 12336 1 0.16500 119244.000000
4382 13357 1 0.16500 119244.000000
4383 12336 1 0.16500 119244.000000
4383 13321 1 0.16500 119244.000000
4384 12336 1 0.16500 119244.000000
4384 24609 1 0.16500 119244.000000
4385 12337 1 0.16500 119244.000000
4385 15860 1 0.16500 119244.000000
4386 12337 1 0.16500 119244.000000
4386 15677 1 0.16500 119244.000000
4387 12337 1 0.16500 119244.000000
4387 14668 1 0.16500 119244.000000
4388 12337 1 0.16500 119244.000000
4388 14943 1 0.16500 119244.000000
4389 12338 1 0.16500 119244.000000
4389 15499 1 0.16500 119244.000000
4390 12338 1 0.16500 119244.000000
4390 14371 1 0.16500 119244.000000
4391 12339 1 0.16500 119244.000000
4391 23709 1 0.16500 119244.000000
4392 12468 1 0.16500 119244.000000
4392 23709 1 0.16500 119244.000000
4393 12339 1 0.16500 119244.000000
4393 13023 1 0.16500 119244.000000
4394 12340 1 0.16500 119244.000000
4394 15199 1 0.16500 119244.000000
4395 12340 1 0.16500 119244.000000
4395 13806 1 0.16500 119244.000000
4396 12340 1 0.16500 119244.000000
4396 14470 1 0.16500 119244.000000
4397 12340 1 0.16500 119244.000000
4397 13901 1 0.16500 119244.000000
4398 15650 1 0.16500 119244.000000
4398 20589 1 0.16500 119244.000000
4399 13835 1 0.16500 119244.000000
4399 20589 1 0.16500 119244.000000
4400 14373 1 0.16500 119244.000000
4400 20589 1 0.16500 119244.000000
4401 12341 1 0.16500 119244.000000
4401 14610 1 0.16500 119244.000000
4402 12341 1 0.16500 119244.000000
4402 13766 1 0.16500 119244.000000
4403 12341 1 0.16500 119244.000000
4403 15452 1 0.16500 119244.000000
4404 12342 1 0.16500 119244.000000
4404 15906 1 0.16500 119244.000000
4405 12342 1 0.16500 119244.000000
4405 14531 1 0.16500 119244.000000
4406 12342 1 0.16500 119244.000000
4406 13652 1 0.16500 119244.000000
4407 12343 1 0.16500 119244.000000
4407 13373 1 0.16500 119244.000000
4408 12343 1 0.16500 119244.000000
4408 14347 1 0.16500 119244.000000
4409 12343 1 0.16500 119244.000000
4409 14632 1 0.16500 119244.000000
4410 12344 1 0.16500 119244.000000
4410 15655 1 0.16500 119244.000000
4411 12344 1 0.16500 119244.000000
4411 12962 1 0.16500 119244.000000
4412 12344 1 0.16500 119244.000000
4412 13161 1 0.16500 119244.000000
4413 12345 1 0.16500 119244.000000
4413 16099 1 0.16500 119244.000000
4414 12345 1 0.16500 119244.000000
4414 16031 1 0.16500 119244.000000
4415 12345 1 0.16500 119244.000000
4415 14515 1 0.16500 119244.000000
4416 12345 1 0.16500 119244.000000
4416 15670 1 0.16500 119244.000000
4417 12346 1 0.16500 119244.000000
4417 13317 1 0.16500 119244.000000
4418 12346 1 0.16500 119244.000000
4418 20745 1 0.16500 119244.000000
4419 12058 1 0.16500 119244.000000
4419 23349 1 0.16500 119244.000000
4420 12347 1 0.16500 119244.000000
4420 12405 1 0.16500 119244.000000
4421 12347 1 0.16500 119244.000000
4421 14139 1 0.16500 119244.000000
4422 12347 1 0.16500 119244.000000
4422 12418 1 0.16500 119244.000000
4423 12348 1 0.16500 119244.000000
4423 15785 1 0.16500 119244.000000
4424 12348 1 0.16500 119244.000000
4424 14884 1 0.16500 119244.000000
4425 12349 1 0.16500 119244.000000
4425 23877 1 0.16500 119244.000000
4426 12349 1 0.16500 119244.000000
4426 14825 1 0.16500 119244.000000
4427 12349 1 0.16500 119244.000000
4427 21489 1 0.16500 119244.000000
4428 12350 1 0.16500 119244.000000
4428 14060 1 0.16500 119244.000000
4429 12350 1 0.16500 119244.000000
4429 12743 1 0.16500 119244.000000
4430 12350 1 0.16500 119244.000000
4430 12948 1 0.16500 119244.000000
4431 12350 1 0.16500 119244.000000
4431 16211 1 0.16500 119244.000000
4432 20601 1 0.16500 119244.000000
4432 24540 1 0.16500 119244.000000
4433 20601 1 0.16500 119244.000000
4433 22413 1 0.16500 119244.000000
4434 14099 1 0.16500 119244.000000
4434 20601 1 0.16500 119244.000000
4435 12943 1 0.16500 119244.000000
4435 20613 1 0.16500 119244.000000
4436 12351 1 0.16500 119244.000000
4436 13841 1 0.16500 119244.000000
4437 12351 1 0.16500 119244.000000
4437 24414 1 0.16500 119244.000000
4438 12351 1 0.16500 119244.000000
4438 15040 1 0.16500 119244.000000
4439 12351 1 0.16500 119244.000000
4439 24234 1 0.16500 119244.000000
4440 12352 1 0.16500 119244.000000
4440 14229 1 0.16500 119244.000000
4441 12352 1 0.16500 119244.000000
4441 12895 1 0.16500 119244.000000
4442 12353 1 0.16500 119244.000000
4442 13787 1 0.16500 119244.000000
4443 12353 1 0.16500 119244.000000
4443 12858 1 0.16500 119244.000000
4444 11314 1 0.16500 119244.000000
4444 12353 1 0.16500 119244.000000
4445 12353 1 0.16500 119244.000000
4445 16077 1 0.16500 119244.000000
4446 12354 1 0.16500 119244.000000
4446 24129 1 0.16500 119244.000000
4447 12354 1 0.16500 119244.000000
4447 14940 1 0.16500 119244.000000
4448 12354 1 0.16500 119244.000000
4448 16200 1 0.16500 119244.000000
4449 12354 1 0.16500 119244.000000
4449 12750 1 0.16500 119244.000000
4450 12355 1 0.16500 119244.000000
4450 15359 1 0.16500 119244.000000
4451 12355 1 0.16500 119244.000000
4451 14971 1 0.16500 119244.000000
4452 12355 1 0.16500 119244.000000
4452 24582 1 0.16500 119244.000000
4453 12356 1 0.16500 119244.000000
4453 13797 1 0.16500 119244.000000
4454 12356 1 0.16500 119244.000000
4454 21069 1 0.16500 119244.000000
4455 12356 1 0.16500 119244.000000
4455 22581 1 0.16500 119244.000000
4456 12357 1 0.16500 119244.000000
4456 14823 1 0.16500 119244.000000
4457 12357 1 0.16500 119244.000000
4457 12793 1 0.16500 119244.000000
4458 12357 1 0.16500 119244.000000
4458 12487 1 0.16500 119244.000000
4459 12358 1 0.16500 119244.000000
4459 12659 1 0.16500 119244.000000
4460 12358 1 0.16500 119244.000000
4460 13322 1 0.16500 119244.000000
4461 12359 1 0.16500 119244.000000
4461 13901 1 0.16500 119244.000000
4462 12359 1 0.16500 119244.000000
4462 12386 1 0.16500 119244.000000
4463 11432 1 0.16500 119244.000000
4463 12359 1 0.16500 119244.000000
4464 12360 1 0.16500 119244.000000
4464 12812 1 0.16500 119244.000000
4465 12360 1 0.16500 119244.000000
4465 15744 1 0.16500 119244.000000
4466 12361 1 0.16500 119244.000000
4466 12832 1 0.16500 119244.000000
4467 12361 1 0.16500 119244.000000
4467 14098 1 0.16500 119244.000000
4468 12361 1 0.16500 119244.000000
4468 12998 1 0.16500 119244.000000
4469 12362 1 0.16500 119244.000000
4469 15740 1 0.16500 119244.000000
4470 12362 1 0.16500 119244.000000
4470 14021 1 0.16500 119244.000000
4471 12362 1 0.16500 119244.000000
4471 15037 1 0.16500 119244.000000
4472 12362 1 0.16500 119244.000000
4472 14202 1 0.16500 119244.000000
4473 12363 1 0.16500 119244.000000
4473 14235 1 0.16500 119244.000000
4474 12363 1 0.16500 119244.000000
4474 14535 1 0.16500 119244.000000
4475 12363 1 0.16500 119244.000000
4475 14151 1 0.16500 119244.000000
4476 15077 1 0.16500 119244.000000
4476 20625 1 0.16500 119244.000000
4477 16174 1 0.16500 119244.000000
4477 20625 1 0.16500 119244.000000
4478 15739 1 0.16500 119244.000000
4478 20625 1 0.16500 119244.000000
4479 20637 1 0.16500 119244.000000
4479 24213 1 0.16500 119244.000000
4480 14089 1 0.16500 119244.000000
4480 15781 1 0.16500 119244.000000
4481 15781 1 0.16500 119244.000000
4481 20637 1 0.16500 119244.000000
4482 12364 1 0.16500 119244.000000
4482 13359 1 0.16500 119244.000000
4483 12364 1 0.16500 119244.000000
4483 13502 1 0.16500 119244.000000
4484 12364 1 0.16500 119244.000000
4484 14045 1 0.16500 119244.000000
4485 12364 1 0.16500 119244.000000
4485 15990 1 0.16500 119244.000000
4486 12365 1 0.16500 119244.000000
4486 15125 1 0.16500 119244.000000
4487 12365 1 0.16500 119244.000000
4487 14815 1 0.16500 119244.000000
4488 12365 1 0.16500 119244.000000
4488 13363 1 0.16500 119244.000000
4489 12365 1 0.16500 119244.000000
4489 16126 1 0.16500 119244.000000
4490 12366 1 0.16500 119244.000000
4490 13846 1 0.16500 119244.000000
4491 12366 1 0.16500 119244.000000
4491 15771 1 0.16500 119244.000000
4492 12366 1 0.16500 119244.000000
4492 12797 1 0.16500 119244.000000
4493 12366 1 0.16500 119244.000000
4493 14288 1 0.16500 119244.000000
4494 12367 1 0.16500 119244.000000
4494 14717 1 0.16500 119244.000000
4495 14291 1 0.16500 119244.000000
4495 15591 1 0.16500 119244.000000
4496 12367 1 0.16500 119244.000000
4496 14291 1 0.16500 119244.000000
4497 12367 1 0.16500 119244.000000
4497 24348 1 0.16500 119244.000000
4498 12368 1 0.16500 119244.000000
4498 13175 1 0.16500 119244.000000
4499 12368 1 0.16500 119244.000000
4499 12874 1 0.16500 119244.000000
4500 12368 1 0.16500 119244.000000
4500 15194 1 0.16500 119244.000000
4501 12369 1 0.16500 119244.000000
4501 24330 1 0.16500 119244.000000
4502 12369 1 0.16500 119244.000000
4502 16116 1 0.16500 119244.000000
4503 12369 1 0.16500 119244.000000
4503 16057 1 0.16500 119244.000000
4504 12370 1 0.16500 119244.000000
4504 15607 1 0.16500 119244.000000
4505 12370 1 0.16500 119244.000000
4505 15748 1 0.16500 119244.000000
4506 12370 1 0.16500 119244.000000
4506 14664 1 0.16500 119244.000000
4507 12371 1 0.16500 119244.000000
4507 15818 1 0.16500 119244.000000
4508 12371 1 0.16500 119244.000000
4508 16030 1 0.16500 119244.000000
4509 14398 1 0.16500 119244.000000
4509 20661 1 0.16500 119244.000000
4510 20661 1 0.16500 119244.000000
4510 24276 1 0.16500 119244.000000
4511 20673 1 0.16500 119244.000000
4511 22149 1 0.16500 119244.000000
4512 13735 1 0.16500 119244.000000
4512 20673 1 0.16500 119244.000000
4513 20673 1 0.16500 119244.000000
4513 22101 1 0.16500 119244.000000
4514 13214 1 0.16500 119244.000000
4514 22509 1 0.16500 119244.000000
4515 20685 1 0.16500 119244.000000
4515 23769 1 0.16500 119244.000000
4516 20685 1 0.16500 119244.000000
4516 23037 1 0.16500 119244.000000
4517 20685 1 0.16500 119244.000000
4517 24501 1 0.16500 119244.000000
4518 12372 1 0.16500 119244.000000
4518 15301 1 0.16500 119244.000000
4519 12372 1 0.16500 119244.000000
4519 24540 1 0.16500 119244.000000
4520 12372 1 0.16500 119244.000000
4520 16080 1 0.16500 119244.000000
4521 12372 1 0.16500 119244.000000
4521 12584 1 0.16500 119244.000000
4522 12373 1 0.16500 119244.000000
4522 14644 1 0.16500 119244.000000
4523 12373 1 0.16500 119244.000000
4523 14891 1 0.16500 119244.000000
4524 12374 1 0.16500 119244.000000
4524 15086 1 0.16500 119244.000000
4525 12374 1 0.16500 119244.000000
4525 13945 1 0.16500 119244.000000
4526 12375 1 0.16500 119244.000000
4526 13112 1 0.16500 119244.000000
4527 12375 1 0.16500 119244.000000
4527 15376 1 0.16500 119244.000000
4528 11484 1 0.16500 119244.000000
4528 12375 1 0.16500 119244.000000
4529 12375 1 0.16500 119244.000000
4529 15485 1 0.16500 119244.000000
4530 20697 1 0.16500 119244.000000
4530 24552 1 0.16500 119244.000000
4531 12376 1 0.16500 119244.000000
4531 15982 1 0.16500 119244.000000
4532 12376 1 0.16500 119244.000000
4532 16048 1 0.16500 119244.000000
4533 11781 1 0.16500 119244.000000
4533 12376 1 0.16500 119244.000000
4534 20709 1 0.16500 119244.000000
4534 24171 1 0.16500 119244.000000
4535 14027 1 0.16500 119244.000000
4535 20709 1 0.16500 119244.000000
4536 12377 1 0.16500 119244.000000
4536 14831 1 0.16500 119244.000000
4537 12377 1 0.16500 119244.000000
4537 14714 1 0.16500 119244.000000
4538 12377 1 0.16500 119244.000000
4538 15774 1 0.16500 119244.000000
4539 12378 1 0.16500 119244.000000
4539 23991 1 0.16500 119244.000000
4540 12379 1 0.16500 119244.000000
4540 14300 1 0.16500 119244.000000
4541 12379 1 0.16500 119244.000000
4541 15484 1 0.16500 119244.000000
4542 12379 1 0.16500 119244.000000
4542 14762 1 0.16500 119244.000000
4543 12380 1 0.16500 119244.000000
4543 13688 1 0.16500 119244.000000
4544 12380 1 0.16500 119244.000000
4544 13744 1 0.16500 119244.000000
4545 12380 1 0.16500 119244.000000
4545 12530 1 0.16500 119244.000000
4546 12381 1 0.16500 119244.000000
4546 13989 1 0.16500 119244.000000
4547 12381 1 0.16500 119244.000000
4547 13001 1 0.16500 119244.000000
4548 12381 1 0.16500 119244.000000
4548 13942 1 0.16500 119244.000000
4549 12381 1 0.16500 119244.000000
4549 15995 1 0.16500 119244.000000
4550 12382 1 0.16500 119244.000000
4550 24297 1 0.16500 119244.000000
4551 12382 1 0.16500 119244.000000
4551 14149 1 0.16500 119244.000000
4552 12382 1 0.16500 119244.000000
4552 14906 1 0.16500 119244.000000
4553 23205 1 0.16500 119244.000000
4553 23916 1 0.16500 119244.000000
4554 12383 1 0.16500 119244.000000
4554 22053 1 0.16500 119244.000000
4555 12383 1 0.16500 119244.000000
4555 16008 1 0.16500 119244.000000
4556 12383 1 0.16500 119244.000000
4556 23916 1 0.16500 119244.000000
4557 12384 1 0.16500 119244.000000
4557 12435 1 0.16500 119244.000000
4558 12384 1 0.16500 119244.000000
4558 15775 1 0.16500 119244.000000
4559 12384 1 0.16500 119244.000000
4559 13610 1 0.16500 119244.000000
4560 12314 1 0.16500 119244.000000
4560 16090 1 0.16500 119244.000000
4561 12385 1 0.16500 119244.000000
4561 16106 1 0.16500 119244.000000
4562 12385 1 0.16500 119244.000000
4562 14474 1 0.16500 119244.000000
4563 12386 1 0.16500 119244.000000
4563 13895 1 0.16500 119244.000000
4564 12386 1 0.16500 119244.000000
4564 13034 1 0.16500 119244.000000
4565 12387 1 0.16500 119244.000000
4565 24285 1 0.16500 119244.000000
4566 12387 1 0.16500 119244.000000
4566 15116 1 0.16500 119244.000000
4567 12388 1 0.16500 119244.000000
4567 15176 1 0.16500 119244.000000
4568 12389 1 0.16500 119244.000000
4568 13976 1 0.16500 119244.000000
4569 12389 1 0.16500 119244.000000
4569 13070 1 0.16500 119244.000000
4570 12389 1 0.16500 119244.000000
4570 16160 1 0.16500 119244.000000
4571 12389 1 0.16500 119244.000000
4571 12522 1 0.16500 119244.000000
4572 12390 1 0.16500 119244.000000
4572 14685 1 0.16500 119244.000000
4573 12390 1 0.16500 119244.000000
4573 15362 1 0.16500 119244.000000
4574 12390 1 0.16500 119244.000000
4574 14763 1 0.16500 119244.000000
4575 12391 1 0.16500 119244.000000
4575 14886 1 0.16500 119244.000000
4576 12391 1 0.16500 119244.000000
4576 22509 1 0.16500 119244.000000
4577 12391 1 0.16500 119244.000000
4577 23349 1 0.16500 119244.000000
4578 12391 1 0.16500 119244.000000
4578 12888 1 0.16500 119244.000000
4579 12392 1 0.16500 119244.000000
4579 13301 1 0.16500 119244.000000
4580 12392 1 0.16500 119244.000000
4580 14993 1 0.16500 119244.000000
4581 12392 1 0.16500 119244.000000
4581 14352 1 0.16500 119244.000000
4582 12392 1 0.16500 119244.000000
4582 15119 1 0.16500 119244.000000
4583 12393 1 0.16500 119244.000000
4583 13042 1 0.16500 119244.000000
4584 13042 1 0.16500 119244.000000
4584 24186 1 0.16500 119244.000000
4585 12394 1 0.16500 119244.000000
4585 15696 1 0.16500 119244.000000
4586 14387 1 0.16500 119244.000000
4586 20721 1 0.16500 119244.000000
4587 20721 1 0.16500 119244.000000
4587 24734 1 0.16500 119244.000000
4588 14130 1 0.16500 119244.000000
4588 20721 1 0.16500 119244.000000
4589 15027 1 0.16500 119244.000000
4589 21513 1 0.16500 119244.000000
4590 12822 1 0.16500 119244.000000
4590 15027 1 0.16500 119244.000000
4591 12395 1 0.16500 119244.000000
4591 15027 1 0.16500 119244.000000
4592 13460 1 0.16500 119244.000000
4592 15027 1 0.16500 119244.000000
4593 14374 1 0.16500 119244.000000
4593 14796 1 0.16500 119244.000000
4594 12396 1 0.16500 119244.000000
4594 14642 1 0.16500 119244.000000
4595 12396 1 0.16500 119244.000000
4595 14796 1 0.16500 119244.000000
4596 12397 1 0.16500 119244.000000
4596 12699 1 0.16500 119244.000000
4597 12397 1 0.16500 119244.000000
4597 15233 1 0.16500 119244.000000
4598 12397 1 0.16500 119244.000000
4598 15159 1 0.16500 119244.000000
4599 12398 1 0.16500 119244.000000
4599 13604 1 0.16500 119244.000000
4600 12398 1 0.16500 119244.000000
4600 12504 1 0.16500 119244.000000
4601 12398 1 0.16500 119244.000000
4601 14886 1 0.16500 119244.000000
4602 12398 1 0.16500 119244.000000
4602 14863 1 0.16500 119244.000000
4603 15847 1 0.16500 119244.000000
4603 20733 1 0.16500 119244.000000
4604 20733 1 0.16500 119244.000000
4604 24513 1 0.16500 119244.000000
4605 12399 1 0.16500 119244.000000
4605 15598 1 0.16500 119244.000000
4606 12399 1 0.16500 119244.000000
4606 12447 1 0.16500 119244.000000
4607 15896 1 0.16500 119244.000000
4607 22917 1 0.16500 119244.000000
4608 15157 1 0.16500 119244.000000
4608 22917 1 0.16500 119244.000000
4609 12400 1 0.16500 119244.000000
4609 13126 1 0.16500 119244.000000
4610 12400 1 0.16500 119244.000000
4610 15069 1 0.16500 119244.000000
4611 12400 1 0.16500 119244.000000
4611 15336 1 0.16500 119244.000000
4612 12400 1 0.16500 119244.000000
4612 15375 1 0.16500 119244.000000
4613 12401 1 0.16500 119244.000000
4613 15593 1 0.16500 119244.000000
4614 12401 1 0.16500 119244.000000
4614 13937 1 0.16500 119244.000000
4615 12401 1 0.16500 119244.000000
4615 14596 1 0.16500 119244.000000
4616 12401 1 0.16500 119244.000000
4616 15073 1 0.16500 119244.000000
4617 12402 1 0.16500 119244.000000
4617 12488 1 0.16500 119244.000000
4618 12402 1 0.16500 119244.000000
4618 14575 1 0.16500 119244.000000
4619 12402 1 0.16500 119244.000000
4619 15119 1 0.16500 119244.000000
4620 12403 1 0.16500 119244.000000
4620 15418 1 0.16500 119244.000000
4621 12403 1 0.16500 119244.000000
4621 13210 1 0.16500 119244.000000
4622 12403 1 0.16500 119244.000000
4622 14133 1 0.16500 119244.000000
4623 20745 1 0.16500 119244.000000
4623 24105 1 0.16500 119244.000000
4624 11341 1 0.16500 119244.000000
4624 20745 1 0.16500 119244.000000
4625 12279 1 0.16500 119244.000000
4625 14083 1 0.16500 119244.000000
4626 12404 1 0.16500 119244.000000
4626 14467 1 0.16500 119244.000000
4627 12404 1 0.16500 119244.000000
4627 12834 1 0.16500 119244.000000
4628 12405 1 0.16500 119244.000000
4628 14929 1 0.16500 119244.000000
4629 12405 1 0.16500 119244.000000
4629 13527 1 0.16500 119244.000000
4630 12406 1 0.16500 119244.000000
4630 13157 1 0.16500 119244.000000
4631 12406 1 0.16500 119244.000000
4631 14910 1 0.16500 119244.000000
4632 12406 1 0.16500 119244.000000
4632 12878 1 0.16500 119244.000000
4633 12406 1 0.16500 119244.000000
4633 14297 1 0.16500 119244.000000
4634 12407 1 0.16500 119244.000000
4634 13532 1 0.16500 119244.000000
4635 12407 1 0.16500 119244.000000
4635 15434 1 0.16500 119244.000000
4636 16133 1 0.16500 119244.000000
4636 20757 1 0.16500 119244.000000
4637 13225 1 0.16500 119244.000000
4637 20757 1 0.16500 119244.000000
4638 12744 1 0.16500 119244.000000
4638 20757 1 0.16500 119244.000000
4639 11347 1 0.16500 119244.000000
4639 15976 1 0.16500 119244.000000
4640 11347 1 0.16500 119244.000000
4640 13612 1 0.16500 119244.000000
4641 12409 1 0.16500 119244.000000
4641 15753 1 0.16500 119244.000000
4642 12409 1 0.16500 119244.000000
4642 15015 1 0.16500 119244.000000
4643 12409 1 0.16500 119244.000000
4643 14644 1 0.16500 119244.000000
4644 12409 1 0.16500 119244.000000
4644 13265 1 0.16500 119244.000000
4645 12410 1 0.16500 119244.000000
4645 23325 1 0.16500 119244.000000
4646 12410 1 0.16500 119244.000000
4646 15602 1 0.16500 119244.000000
4647 12410 1 0.16500 119244.000000
4647 16182 1 0.16500 119244.000000
4648 12411 1 0.16500 119244.000000
4648 20781 1 0.16500 119244.000000
4649 12411 1 0.16500 119244.000000
4649 12424 1 0.16500 119244.000000
4650 12411 1 0.16500 119244.000000
4650 16287 1 0.16500 119244.000000
4651 12412 1 0.16500 119244.000000
4651 15777 1 0.16500 119244.000000
4652 12412 1 0.16500 119244.000000
4652 16034 1 0.16500 119244.000000
4653 12412 1 0.16500 119244.000000
4653 12814 1 0.16500 119244.000000
4654 12413 1 0.16500 119244.000000
4654 12605 1 0.16500 119244.000000
4655 12413 1 0.16500 119244.000000
4655 13762 1 0.16500 119244.000000
4656 12413 1 0.16500 119244.000000
4656 13024 1 0.16500 119244.000000
4657 12413 1 0.16500 119244.000000
4657 15388 1 0.16500 119244.000000
4658 12414 1 0.16500 119244.000000
4658 13414 1 0.16500 119244.000000
4659 12414 1 0.16500 119244.000000
4659 14819 1 0.16500 119244.000000
4660 12415 1 0.16500 119244.000000
4660 16161 1 0.16500 119244.000000
4661 12415 1 0.16500 119244.000000
4661 16201 1 0.16500 119244.000000
4662 12415 1 0.16500 119244.000000
4662 15516 1 0.16500 119244.000000
4663 12415 1 0.16500 119244.000000
4663 12823 1 0.16500 119244.000000
4664 12416 1 0.16500 119244.000000
4664 13577 1 0.16500 119244.000000
4665 12416 1 0.16500 119244.000000
4665 15285 1 0.16500 119244.000000
4666 12416 1 0.16500 119244.000000
4666 15058 1 0.16500 119244.000000
4667 12417 1 0.16500 119244.000000
4667 16120 1 0.16500 119244.000000
4668 12417 1 0.16500 119244.000000
4668 15886 1 0.16500 119244.000000
4669 12417 1 0.16500 119244.000000
4669 15087 1 0.16500 119244.000000
4670 12417 1 0.16500 119244.000000
4670 12758 1 0.16500 119244.000000
4671 12418 1 0.16500 119244.000000
4671 14540 1 0.16500 119244.000000
4672 12418 1 0.16500 119244.000000
4672 14047 1 0.16500 119244.000000
4673 12418 1 0.16500 119244.000000
4673 15354 1 0.16500 119244.000000
4674 12419 1 0.16500 119244.000000
4674 23433 1 0.16500 119244.000000
4675 12419 1 0.16500 119244.000000
4675 13325 1 0.16500 119244.000000
4676 13648 1 0.16500 119244.000000
4676 14980 1 0.16500 119244.000000
4677 12419 1 0.16500 119244.000000
4677 14980 1 0.16500 119244.000000
4678 12420 1 0.16500 119244.000000
4678 12630 1 0.16500 119244.000000
4679 12420 1 0.16500 119244.000000
4679 13310 1 0.16500 119244.000000
4680 12420 1 0.16500 119244.000000
4680 15829 1 0.16500 119244.000000
4681 12420 1 0.16500 119244.000000
4681 15822 1 0.16500 119244.000000
4682 12421 1 0.16500 119244.000000
4682 15925 1 0.16500 119244.000000
4683 12421 1 0.16500 119244.000000
4683 15996 1 0.16500 119244.000000
4684 12422 1 0.16500 119244.000000
4684 13927 1 0.16500 119244.000000
4685 12422 1 0.16500 119244.000000
4685 12867 1 0.16500 119244.000000
4686 12422 1 0.16500 119244.000000
4686 14073 1 0.16500 119244.000000
4687 12422 1 0.16500 119244.000000
4687 12828 1 0.16500 119244.000000
4688 12423 1 0.16500 119244.000000
4688 24006 1 0.16500 119244.000000
4689 12423 1 0.16500 119244.000000
4689 23943 1 0.16500 119244.000000
4690 12423 1 0.16500 119244.000000
4690 12526 1 0.16500 119244.000000
4691 20769 1 0.16500 119244.000000
4691 23733 1 0.16500 119244.000000
4692 20769 1 0.16500 119244.000000
4692 22677 1 0.16500 119244.000000
4693 14662 1 0.16500 119244.000000
4693 20769 1 0.16500 119244.000000
4694 12424 1 0.16500 119244.000000
4694 15445 1 0.16500 119244.000000
4695 12424 1 0.16500 119244.000000
4695 15751 1 0.16500 119244.000000
4696 12425 1 0.16500 119244.000000
4696 13011 1 0.16500 119244.000000
4697 12425 1 0.16500 119244.000000
4697 15473 1 0.16500 119244.000000
4698 12426 1 0.16500 119244.000000
4698 14847 1 0.16500 119244.000000
4699 12426 1 0.16500 119244.000000
4699 15124 1 0.16500 119244.000000
4700 13689 1 0.16500 119244.000000
4700 20781 1 0.16500 119244.000000
4701 20781 1 0.16500 119244.000000
4701 23361 1 0.16500 119244.000000
4702 12427 1 0.16500 119244.000000
4702 15193 1 0.16500 119244.000000
4703 12427 1 0.16500 119244.000000
4703 13029 1 0.16500 119244.000000
4704 12427 1 0.16500 119244.000000
4704 13890 1 0.16500 119244.000000
4705 12428 1 0.16500 119244.000000
4705 13526 1 0.16500 119244.000000
4706 12428 1 0.16500 119244.000000
4706 14848 1 0.16500 119244.000000
4707 12428 1 0.16500 119244.000000
4707 23061 1 0.16500 119244.000000
4708 12429 1 0.16500 119244.000000
4708 13534 1 0.16500 119244.000000
4709 12429 1 0.16500 119244.000000
4709 21177 1 0.16500 119244.000000
4710 12429 1 0.16500 119244.000000
4710 14729 1 0.16500 119244.000000
4711 12430 1 0.16500 119244.000000
4711 14313 1 0.16500 119244.000000
4712 12430 1 0.16500 119244.000000
4712 13797 1 0.16500 119244.000000
4713 12430 1 0.16500 119244.000000
4713 12445 1 0.16500 119244.000000
4714 12430 1 0.16500 119244.000000
4714 14703 1 0.16500 119244.000000
4715 12431 1 0.16500 119244.000000
4715 12828 1 0.16500 119244.000000
4716 12431 1 0.16500 119244.000000
4716 14143 1 0.16500 119244.000000
4717 12432 1 0.16500 119244.000000
4717 12926 1 0.16500 119244.000000
4718 12432 1 0.16500 119244.000000
4718 15926 1 0.16500 119244.000000
4719 12432 1 0.16500 119244.000000
4719 15249 1 0.16500 119244.000000
4720 12432 1 0.16500 119244.000000
4720 13561 1 0.16500 119244.000000
4721 12433 1 0.16500 119244.000000
4721 13213 1 0.16500 119244.000000
4722 12433 1 0.16500 119244.000000
4722 12477 1 0.16500 119244.000000
4723 12433 1 0.16500 119244.000000
4723 12442 1 0.16500 119244.000000
4724 12433 1 0.16500 119244.000000
4724 13360 1 0.16500 119244.000000
4725 12434 1 0.16500 119244.000000
4725 15760 1 0.16500 119244.000000
4726 12434 1 0.16500 119244.000000
4726 16081 1 0.16500 119244.000000
4727 12434 1 0.16500 119244.000000
4727 15556 1 0.16500 119244.000000
4728 12434 1 0.16500 119244.000000
4728 14516 1 0.16500 119244.000000
4729 12435 1 0.16500 119244.000000
4729 13017 1 0.16500 119244.000000
4730 12435 1 0.16500 119244.000000
4730 12945 1 0.16500 119244.000000
4731 12435 1 0.16500 119244.000000
4731 13891 1 0.16500 119244.000000
4732 12436 1 0.16500 119244.000000
4732 13999 1 0.16500 119244.000000
4733 12436 1 0.16500 119244.000000
4733 24615 1 0.16500 119244.000000
4734 12436 1 0.16500 119244.000000
4734 12543 1 0.16500 119244.000000
4735 12436 1 0.16500 119244.000000
4735 24480 1 0.16500 119244.000000
4736 13812 1 0.16500 119244.000000
4736 20793 1 0.16500 119244.000000
4737 20793 1 0.16500 119244.000000
4737 23001 1 0.16500 119244.000000
4738 12437 1 0.16500 119244.000000
4738 14444 1 0.16500 119244.000000
4739 12437 1 0.16500 119244.000000
4739 15303 1 0.16500 119244.000000
4740 12437 1 0.16500 119244.000000
4740 15780 1 0.16500 119244.000000
4741 12437 1 0.16500 119244.000000
4741 12979 1 0.16500 119244.000000
4742 12438 1 0.16500 119244.000000
4742 13870 1 0.16500 119244.000000
4743 12438 1 0.16500 119244.000000
4743 13636 1 0.16500 119244.000000
4744 12438 1 0.16500 119244.000000
4744 12493 1 0.16500 119244.000000
4745 12439 1 0.16500 119244.000000
4745 15795 1 0.16500 119244.000000
4746 12439 1 0.16500 119244.000000
4746 12863 1 0.16500 119244.000000
4747 12440 1 0.16500 119244.000000
4747 14159 1 0.16500 119244.000000
4748 12440 1 0.16500 119244.000000
4748 15825 1 0.16500 119244.000000
4749 12440 1 0.16500 119244.000000
4749 15123 1 0.16500 119244.000000
4750 12441 1 0.16500 119244.000000
4750 12659 1 0.16500 119244.000000
4751 12441 1 0.16500 119244.000000
4751 13394 1 0.16500 119244.000000
4752 12442 1 0.16500 119244.000000
4752 13388 1 0.16500 119244.000000
4753 12442 1 0.16500 119244.000000
4753 14808 1 0.16500 119244.000000
4754 12442 1 0.16500 119244.000000
4754 15711 1 0.16500 119244.000000
4755 13674 1 0.16500 119244.000000
4755 15711 1 0.16500 119244.000000
4756 12443 1 0.16500 119244.000000
4756 12649 1 0.16500 119244.000000
4757 12443 1 0.16500 119244.000000
4757 15655 1 0.16500 119244.000000
4758 12443 1 0.16500 119244.000000
4758 14316 1 0.16500 119244.000000
4759 12444 1 0.16500 119244.000000
4759 15622 1 0.16500 119244.000000
4760 13607 1 0.16500 119244.000000
4760 14046 1 0.16500 119244.000000
4761 12444 1 0.16500 119244.000000
4761 14046 1 0.16500 119244.000000
4762 12445 1 0.16500 119244.000000
4762 13410 1 0.16500 119244.000000
4763 12445 1 0.16500 119244.000000
4763 15752 1 0.16500 119244.000000
4764 12445 1 0.16500 119244.000000
4764 12702 1 0.16500 119244.000000
4765 12446 1 0.16500 119244.000000
4765 14713 1 0.16500 119244.000000
4766 12447 1 0.16500 119244.000000
4766 14813 1 0.16500 119244.000000
4767 12447 1 0.16500 119244.000000
4767 15031 1 0.16500 119244.000000
4768 12447 1 0.16500 119244.000000
4768 15056 1 0.16500 119244.000000
4769 12448 1 0.16500 119244.000000
4769 13827 1 0.16500 119244.000000
4770 12448 1 0.16500 119244.000000
4770 14029 1 0.16500 119244.000000
4771 20805 1 0.16500 119244.000000
4771 22857 1 0.16500 119244.000000
4772 13713 1 0.16500 119244.000000
4772 20805 1 0.16500 119244.000000
4773 12449 1 0.16500 119244.000000
4773 23955 1 0.16500 119244.000000
4774 12449 1 0.16500 119244.000000
4774 12669 1 0.16500 119244.000000
4775 12449 1 0.16500 119244.000000
4775 12892 1 0.16500 119244.000000
4776 12449 1 0.16500 119244.000000
4776 23976 1 0.16500 119244.000000
4777 12450 1 0.16500 119244.000000
4777 22197 1 0.16500 119244.000000
4778 12450 1 0.16500 119244.000000
4778 13060 1 0.16500 119244.000000
4779 12450 1 0.16500 119244.000000
4779 24531 1 0.16500 119244.000000
4780 12450 1 0.16500 119244.000000
4780 12498 1 0.16500 119244.000000
4781 12451 1 0.16500 119244.000000
4781 15352 1 0.16500 119244.000000
4782 12451 1 0.16500 119244.000000
4782 14914 1 0.16500 119244.000000
4783 13483 1 0.16500 119244.000000
4783 15352 1 0.16500 119244.000000
4784 12452 1 0.16500 119244.000000
4784 15756 1 0.16500 119244.000000
4785 12452 1 0.16500 119244.000000
4785 22713 1 0.16500 119244.000000
4786 12453 1 0.16500 119244.000000
4786 15981 1 0.16500 119244.000000
4787 12453 1 0.16500 119244.000000
4787 12708 1 0.16500 119244.000000
4788 12453 1 0.16500 119244.000000
4788 14123 1 0.16500 119244.000000
4789 12176 1 0.16500 119244.000000
4789 20817 1 0.16500 119244.000000
4790 12454 1 0.16500 119244.000000
4790 24468 1 0.16500 119244.000000
4791 12454 1 0.16500 119244.000000
4791 13343 1 0.16500 119244.000000
4792 12454 1 0.16500 119244.000000
4792 20925 1 0.16500 119244.000000
4793 12455 1 0.16500 119244.000000
4793 13587 1 0.16500 119244.000000
4794 12455 1 0.16500 119244.000000
4794 12973 1 0.16500 119244.000000
4795 20829 1 0.16500 119244.000000
4795 21945 1 0.16500 119244.000000
4796 12456 1 0.16500 119244.000000
4796 14701 1 0.16500 119244.000000
4797 12456 1 0.16500 119244.000000
4797 13468 1 0.16500 119244.000000
4798 12456 1 0.16500 119244.000000
4798 15018 1 0.16500 119244.000000
4799 12456 1 0.16500 119244.000000
4799 14565 1 0.16500 119244.000000
4800 15728 1 0.16500 119244.000000
4800 20841 1 0.16500 119244.000000
4801 12457 1 0.16500 119244.000000
4801 12863 1 0.16500 119244.000000
4802 12863 1 0.16500 119244.000000
4802 15872 1 0.16500 119244.000000
4803 12457 1 0.16500 119244.000000
4803 14701 1 0.16500 119244.000000
4804 12458 1 0.16500 119244.000000
4804 15536 1 0.16500 119244.000000
4805 12458 1 0.16500 119244.000000
4805 14500 1 0.16500 119244.000000
4806 11892 1 0.16500 119244.000000
4806 12781 1 0.16500 119244.000000
4807 13324 1 0.16500 119244.000000
4807 20853 1 0.16500 119244.000000
4808 14381 1 0.16500 119244.000000
4808 20853 1 0.16500 119244.000000
4809 20853 1 0.16500 119244.000000
4809 24117 1 0.16500 119244.000000
4810 13650 1 0.16500 119244.000000
4810 20865 1 0.16500 119244.000000
4811 13650 1 0.16500 119244.000000
4811 17519 1 0.16500 119244.000000
4812 15068 1 0.16500 119244.000000
4812 20865 1 0.16500 119244.000000
4813 14439 1 0.16500 119244.000000
4813 20877 1 0.16500 119244.000000
4814 20877 1 0.16500 119244.000000
4814 22449 1 0.16500 119244.000000
4815 14934 1 0.16500 119244.000000
4815 20889 1 0.16500 119244.000000
4816 14464 1 0.16500 119244.000000
4816 20889 1 0.16500 119244.000000
4817 20901 1 0.16500 119244.000000
4817 23133 1 0.16500 119244.000000
4818 12459 1 0.16500 119244.000000
4818 15574 1 0.16500 119244.000000
4819 12459 1 0.16500 119244.000000
4819 13229 1 0.16500 119244.000000
4820 12459 1 0.16500 119244.000000
4820 15044 1 0.16500 119244.000000
4821 12460 1 0.16500 119244.000000
4821 12567 1 0.16500 119244.000000
4822 12460 1 0.16500 119244.000000
4822 13678 1 0.16500 119244.000000
4823 12460 1 0.16500 119244.000000
4823 13770 1 0.16500 119244.000000
4824 12460 1 0.16500 119244.000000
4824 14686 1 0.16500 119244.000000
4825 15490 1 0.16500 119244.000000
4825 20913 1 0.16500 119244.000000
4826 15455 1 0.16500 119244.000000
4826 20913 1 0.16500 119244.000000
4827 14108 1 0.16500 119244.000000
4827 20913 1 0.16500 119244.000000
4828 12461 1 0.16500 119244.000000
4828 13745 1 0.16500 119244.000000
4829 12461 1 0.16500 119244.000000
4829 12748 1 0.16500 119244.000000
4830 12461 1 0.16500 119244.000000
4830 15177 1 0.16500 119244.000000
4831 12462 1 0.16500 119244.000000
4831 15945 1 0.16500 119244.000000
4832 12462 1 0.16500 119244.000000
4832 14515 1 0.16500 119244.000000
4833 12462 1 0.16500 119244.000000
4833 15372 1 0.16500 119244.000000
4834 12462 1 0.16500 119244.000000
4834 12772 1 0.16500 119244.000000
4835 12463 1 0.16500 119244.000000
4835 14637 1 0.16500 119244.000000
4836 12463 1 0.16500 119244.000000
4836 16173 1 0.16500 119244.000000
4837 12463 1 0.16500 119244.000000
4837 13041 1 0.16500 119244.000000
4838 12464 1 0.16500 119244.000000
4838 13645 1 0.16500 119244.000000
4839 12464 1 0.16500 119244.000000
4839 13035 1 0.16500 119244.000000
4840 12464 1 0.16500 119244.000000
4840 14568 1 0.16500 119244.000000
4841 12465 1 0.16500 119244.000000
4841 13604 1 0.16500 119244.000000
4842 12465 1 0.16500 119244.000000
4842 14561 1 0.16500 119244.000000
4843 12465 1 0.16500 119244.000000
4843 14229 1 0.16500 119244.000000
4844 12465 1 0.16500 119244.000000
4844 12941 1 0.16500 119244.000000
4845 12466 1 0.16500 119244.000000
4845 12846 1 0.16500 119244.000000
4846 12466 1 0.16500 119244.000000
4846 13456 1 0.16500 119244.000000
4847 12466 1 0.16500 119244.000000
4847 14481 1 0.16500 119244.000000
4848 15551 1 0.16500 119244.000000
4848 24342 1 0.16500 119244.000000
4849 15551 1 0.16500 119244.000000
4849 20937 1 0.16500 119244.000000
4850 12467 1 0.16500 119244.000000
4850 14298 1 0.16500 119244.000000
4851 12467 1 0.16500 119244.000000
4851 13725 1 0.16500 119244.000000
4852 12467 1 0.16500 119244.000000
4852 15662 1 0.16500 119244.000000
4853 12468 1 0.16500 119244.000000
4853 24414 1 0.16500 119244.000000
4854 12468 1 0.16500 119244.000000
4854 14154 1 0.16500 119244.000000
4855 12468 1 0.16500 119244.000000
4855 14617 1 0.16500 119244.000000
4856 12469 1 0.16500 119244.000000
4856 15596 1 0.16500 119244.000000
4857 12469 1 0.16500 119244.000000
4857 15506 1 0.16500 119244.000000
4858 12470 1 0.16500 119244.000000
4858 15810 1 0.16500 119244.000000
4859 12470 1 0.16500 119244.000000
4859 13104 1 0.16500 119244.000000
4860 11914 1 0.16500 119244.000000
4860 14500 1 0.16500 119244.000000
4861 13026 1 0.16500 119244.000000
4861 20949 1 0.16500 119244.000000
4862 12943 1 0.16500 119244.000000
4862 20949 1 0.16500 119244.000000
4863 12471 1 0.16500 119244.000000
4863 15614 1 0.16500 119244.000000
4864 12471 1 0.16500 119244.000000
4864 15892 1 0.16500 119244.000000
4865 12471 1 0.16500 119244.000000
4865 14328 1 0.16500 119244.000000
4866 12471 1 0.16500 119244.000000
4866 16210 1 0.16500 119244.000000
4867 12472 1 0.16500 119244.000000
4867 14619 1 0.16500 119244.000000
4868 12472 1 0.16500 119244.000000
4868 14892 1 0.16500 119244.000000
4869 12472 1 0.16500 119244.000000
4869 14876 1 0.16500 119244.000000
4870 20961 1 0.16500 119244.000000
4870 22533 1 0.16500 119244.000000
4871 14578 1 0.16500 119244.000000
4871 20961 1 0.16500 119244.000000
4872 12473 1 0.16500 119244.000000
4872 14712 1 0.16500 119244.000000
4873 12474 1 0.16500 119244.000000
4873 13478 1 0.16500 119244.000000
4874 12474 1 0.16500 119244.000000
4874 14716 1 0.16500 119244.000000
4875 12474 1 0.16500 119244.000000
4875 14026 1 0.16500 119244.000000
4876 12475 1 0.16500 119244.000000
4876 12524 1 0.16500 119244.000000
4877 12475 1 0.16500 119244.000000
4877 15241 1 0.16500 119244.000000
4878 12475 1 0.16500 119244.000000
4878 13189 1 0.16500 119244.000000
4879 15419 1 0.16500 119244.000000
4879 20973 1 0.16500 119244.000000
4880 12476 1 0.16500 119244.000000
4880 13320 1 0.16500 119244.000000
4881 12476 1 0.16500 119244.000000
4881 15915 1 0.16500 119244.000000
4882 12476 1 0.16500 119244.000000
4882 13290 1 0.16500 119244.000000
4883 12477 1 0.16500 119244.000000
4883 13474 1 0.16500 119244.000000
4884 12477 1 0.16500 119244.000000
4884 13565 1 0.16500 119244.000000
4885 12477 1 0.16500 119244.000000
4885 14344 1 0.16500 119244.000000
4886 14653 1 0.16500 119244.000000
4886 20985 1 0.16500 119244.000000
4887 12478 1 0.16500 119244.000000
4887 16178 1 0.16500 119244.000000
4888 12478 1 0.16500 119244.000000
4888 12804 1 0.16500 119244.000000
4889 12478 1 0.16500 119244.000000
4889 15596 1 0.16500 119244.000000
4890 12478 1 0.16500 119244.000000
4890 14579 1 0.16500 119244.000000
4891 12479 1 0.16500 119244.000000
4891 12648 1 0.16500 119244.000000
4892 12479 1 0.16500 119244.000000
4892 14143 1 0.16500 119244.000000
4893 12479 1 0.16500 119244.000000
4893 14073 1 0.16500 119244.000000
4894 20997 1 0.16500 119244.000000
4894 23385 1 0.16500 119244.000000
4895 13121 1 0.16500 119244.000000
4895 21009 1 0.16500 119244.000000
4896 21009 1 0.16500 119244.000000
4896 23169 1 0.16500 119244.000000
4897 12480 1 0.16500 119244.000000
4897 15132 1 0.16500 119244.000000
4898 12480 1 0.16500 119244.000000
4898 13592 1 0.16500 119244.000000
4899 13924 1 0.16500 119244.000000
4899 15672 1 0.16500 119244.000000
4900 13924 1 0.16500 119244.000000
4900 21021 1 0.16500 119244.000000
4901 12614 1 0.16500 119244.000000
4901 21021 1 0.16500 119244.000000
4902 12481 1 0.16500 119244.000000
4902 12948 1 0.16500 119244.000000
4903 12481 1 0.16500 119244.000000
4903 14692 1 0.16500 119244.000000
4904 12481 1 0.16500 119244.000000
4904 14049 1 0.16500 119244.000000
4905 12481 1 0.16500 119244.000000
4905 13018 1 0.16500 119244.000000
4906 12482 1 0.16500 119244.000000
4906 13805 1 0.16500 119244.000000
4907 12482 1 0.16500 119244.000000
4907 13516 1 0.16500 119244.000000
4908 12482 1 0.16500 119244.000000
4908 12940 1 0.16500 119244.000000
4909 12482 1 0.16500 119244.000000
4909 15062 1 0.16500 119244.000000
4910 12483 1 0.16500 119244.000000
4910 15976 1 0.16500 119244.000000
4911 12483 1 0.16500 119244.000000
4911 15938 1 0.16500 119244.000000
4912 12483 1 0.16500 119244.000000
4912 13139 1 0.16500 119244.000000
4913 12483 1 0.16500 119244.000000
4913 14515 1 0.16500 119244.000000
4914 12484 1 0.16500 119244.000000
4914 14763 1 0.16500 119244.000000
4915 12484 1 0.16500 119244.000000
4915 13374 1 0.16500 119244.000000
4916 12484 1 0.16500 119244.000000
4916 15973 1 0.16500 119244.000000
4917 12484 1 0.16500 119244.000000
4917 15129 1 0.16500 119244.000000
4918 12485 1 0.16500 119244.000000
4918 13959 1 0.16500 119244.000000
4919 12485 1 0.16500 119244.000000
4919 14982 1 0.16500 119244.000000
4920 12485 1 0.16500 119244.000000
4920 13277 1 0.16500 119244.000000
4921 12485 1 0.16500 119244.000000
4921 15194 1 0.16500 119244.000000
4922 13140 1 0.16500 119244.000000
4922 21033 1 0.16500 119244.000000
4923 12486 1 0.16500 119244.000000
4923 14820 1 0.16500 119244.000000
4924 12486 1 0.16500 119244.000000
4924 12622 1 0.16500 119244.000000
4925 12486 1 0.16500 119244.000000
4925 14228 1 0.16500 119244.000000
4926 12487 1 0.16500 119244.000000
4926 13470 1 0.16500 119244.000000
4927 12487 1 0.16500 119244.000000
4927 12683 1 0.16500 119244.000000
4928 12487 1 0.16500 119244.000000
4928 12724 1 0.16500 119244.000000
4929 12488 1 0.16500 119244.000000
4929 24336 1 0.16500 119244.000000
4930 12488 1 0.16500 119244.000000
4930 22029 1 0.16500 119244.000000
4931 12489 1 0.16500 119244.000000
4931 16075 1 0.16500 119244.000000
4932 13916 1 0.16500 119244.000000
4932 21045 1 0.16500 119244.000000
4933 12490 1 0.16500 119244.000000
4933 13457 1 0.16500 119244.000000
4934 12490 1 0.16500 119244.000000
4934 14497 1 0.16500 119244.000000
4935 12490 1 0.16500 119244.000000
4935 14219 1 0.16500 119244.000000
4936 12490 1 0.16500 119244.000000
4936 15586 1 0.16500 119244.000000
4937 14669 1 0.16500 119244.000000
4937 22185 1 0.16500 119244.000000
4938 21057 1 0.16500 119244.000000
4938 22485 1 0.16500 119244.000000
4939 14669 1 0.16500 119244.000000
4939 21057 1 0.16500 119244.000000
4940 15564 1 0.16500 119244.000000
4940 15850 1 0.16500 119244.000000
4941 12491 1 0.16500 119244.000000
4941 12844 1 0.16500 119244.000000
4942 12491 1 0.16500 119244.000000
4942 15850 1 0.16500 119244.000000
4943 12491 1 0.16500 119244.000000
4943 14429 1 0.16500 119244.000000
4944 12492 1 0.16500 119244.000000
4944 15320 1 0.16500 119244.000000
4945 12492 1 0.16500 119244.000000
4945 13847 1 0.16500 119244.000000
4946 12492 1 0.16500 119244.000000
4946 14620 1 0.16500 119244.000000
4947 12493 1 0.16500 119244.000000
4947 12811 1 0.16500 119244.000000
4948 12493 1 0.16500 119244.000000
4948 15938 1 0.16500 119244.000000
4949 12493 1 0.16500 119244.000000
4949 13087 1 0.16500 119244.000000
4950 12494 1 0.16500 119244.000000
4950 15225 1 0.16500 119244.000000
4951 12494 1 0.16500 119244.000000
4951 15187 1 0.16500 119244.000000
4952 12494 1 0.16500 119244.000000
4952 24042 1 0.16500 119244.000000
4953 12494 1 0.16500 119244.000000
4953 15009 1 0.16500 119244.000000
4954 12495 1 0.16500 119244.000000
4954 14827 1 0.16500 119244.000000
4955 12495 1 0.16500 119244.000000
4955 24423 1 0.16500 119244.000000
4956 12495 1 0.16500 119244.000000
4956 21393 1 0.16500 119244.000000
4957 12496 1 0.16500 119244.000000
4957 15216 1 0.16500 119244.000000
4958 12496 1 0.16500 119244.000000
4958 14789 1 0.16500 119244.000000
4959 12496 1 0.16500 119244.000000
4959 13340 1 0.16500 119244.000000
4960 12496 1 0.16500 119244.000000
4960 13966 1 0.16500 119244.000000
4961 15779 1 0.16500 119244.000000
4961 21069 1 0.16500 119244.000000
4962 12497 1 0.16500 119244.000000
4962 14190 1 0.16500 119244.000000
4963 12497 1 0.16500 119244.000000
4963 23901 1 0.16500 119244.000000
4964 12498 1 0.16500 119244.000000
4964 13923 1 0.16500 119244.000000
4965 12498 1 0.16500 119244.000000
4965 15583 1 0.16500 119244.000000
4966 12498 1 0.16500 119244.000000
4966 14700 1 0.16500 119244.000000
4967 12499 1 0.16500 119244.000000
4967 15588 1 0.16500 119244.000000
4968 12499 1 0.16500 119244.000000
4968 15393 1 0.16500 119244.000000
4969 12500 1 0.16500 119244.000000
4969 15861 1 0.16500 119244.000000
4970 12500 1 0.16500 119244.000000
4970 15732 1 0.16500 119244.000000
4971 12500 1 0.16500 119244.000000
4971 21477 1 0.16500 119244.000000
4972 12501 1 0.16500 119244.000000
4972 14977 1 0.16500 119244.000000
4973 12501 1 0.16500 119244.000000
4973 12910 1 0.16500 119244.000000
4974 12501 1 0.16500 119244.000000
4974 13978 1 0.16500 119244.000000
4975 12501 1 0.16500 119244.000000
4975 14850 1 0.16500 119244.000000
4976 12502 1 0.16500 119244.000000
4976 15991 1 0.16500 119244.000000
4977 12502 1 0.16500 119244.000000
4977 16102 1 0.16500 119244.000000
4978 12502 1 0.16500 119244.000000
4978 15961 1 0.16500 119244.000000
4979 12503 1 0.16500 119244.000000
4979 15405 1 0.16500 119244.000000
4980 12503 1 0.16500 119244.000000
4980 13938 1 0.16500 119244.000000
4981 16567 1 0.16500 119244.000000
4981 21081 1 0.16500 119244.000000
4982 13220 1 0.16500 119244.000000
4982 21081 1 0.16500 119244.000000
4983 12504 1 0.16500 119244.000000
4983 14551 1 0.16500 119244.000000
4984 12504 1 0.16500 119244.000000
4984 13838 1 0.16500 119244.000000
4985 12504 1 0.16500 119244.000000
4985 13296 1 0.16500 119244.000000
4986 12505 1 0.16500 119244.000000
4986 13228 1 0.16500 119244.000000
4987 12505 1 0.16500 119244.000000
4987 13274 1 0.16500 119244.000000
4988 12505 1 0.16500 119244.000000
4988 15810 1 0.16500 119244.000000
4989 12506 1 0.16500 119244.000000
4989 14045 1 0.16500 119244.000000
4990 15659 1 0.16500 119244.000000
4990 21093 1 0.16500 119244.000000
4991 16511 1 0.16500 119244.000000
4991 21093 1 0.16500 119244.000000
4992 12507 1 0.16500 119244.000000
4992 15937 1 0.16500 119244.000000
4993 12507 1 0.16500 119244.000000
4993 13749 1 0.16500 119244.000000
4994 21105 1 0.16500 119244.000000
4994 24048 1 0.16500 119244.000000
4995 13098 1 0.16500 119244.000000
4995 21105 1 0.16500 119244.000000
4996 14270 1 0.16500 119244.000000
4996 21117 1 0.16500 119244.000000
4997 12540 1 0.16500 119244.000000
4997 21117 1 0.16500 119244.000000
4998 12508 1 0.16500 119244.000000
4998 13687 1 0.16500 119244.000000
4999 12508 1 0.16500 119244.000000
4999 14103 1 0.16500 119244.000000
5000 12508 1 0.16500 119244.000000
5000 16357 1 0.16500 119244.000000
5001 12508 1 0.16500 119244.000000
5001 18163 1 0.16500 119244.000000
5002 12509 1 0.16500 119244.000000
5002 13481 1 0.16500 119244.000000
5003 12509 1 0.16500 119244.000000
5003 14938 1 0.16500 119244.000000
5004 12509 1 0.16500 119244.000000
5004 13228 1 0.16500 119244.000000
5005 12510 1 0.16500 119244.000000
5005 13911 1 0.16500 119244.000000
5006 12510 1 0.16500 119244.000000
5006 13644 1 0.16500 119244.000000
5007 12510 1 0.16500 119244.000000
5007 12950 1 0.16500 119244.000000
5008 12511 1 0.16500 119244.000000
5008 12564 1 0.16500 119244.000000
5009 12511 1 0.16500 119244.000000
5009 14280 1 0.16500 119244.000000
5010 12512 1 0.16500 119244.000000
5010 13455 1 0.16500 119244.000000
5011 13455 1 0.16500 119244.000000
5011 14942 1 0.16500 119244.000000
5012 15931 1 0.16500 119244.000000
5012 16020 1 0.16500 119244.000000
5013 12512 1 0.16500 119244.000000
5013 15931 1 0.16500 119244.000000
5014 12513 1 0.16500 119244.000000
5014 13970 1 0.16500 119244.000000
5015 12513 1 0.16500 119244.000000
5015 16032 1 0.16500 119244.000000
5016 12513 1 0.16500 119244.000000
5016 14918 1 0.16500 119244.000000
5017 12513 1 0.16500 119244.000000
5017 14654 1 0.16500 119244.000000
5018 12514 1 0.16500 119244.000000
5018 12807 1 0.16500 119244.000000
5019 12514 1 0.16500 119244.000000
5019 21369 1 0.16500 119244.000000
5020 12514 1 0.16500 119244.000000
5020 24051 1 0.16500 119244.000000
5021 12515 1 0.16500 119244.000000
5021 14705 1 0.16500 119244.000000
5022 12516 1 0.16500 119244.000000
5022 15028 1 0.16500 119244.000000
5023 12516 1 0.16500 119244.000000
5023 13548 1 0.16500 119244.000000
5024 12516 1 0.16500 119244.000000
5024 16128 1 0.16500 119244.000000
5025 12516 1 0.16500 119244.000000
5025 12952 1 0.16500 119244.000000
5026 12517 1 0.16500 119244.000000
5026 14210 1 0.16500 119244.000000
5027 12517 1 0.16500 119244.000000
5027 12944 1 0.16500 119244.000000
5028 13422 1 0.16500 119244.000000
5028 13854 1 0.16500 119244.000000
5029 12518 1 0.16500 119244.000000
5029 13422 1 0.16500 119244.000000
5030 16315 1 0.16500 119244.000000
5030 21129 1 0.16500 119244.000000
5031 13365 1 0.16500 119244.000000
5031 21129 1 0.16500 119244.000000
5032 12519 1 0.16500 119244.000000
5032 14584 1 0.16500 119244.000000
5033 12519 1 0.16500 119244.000000
5033 13347 1 0.16500 119244.000000
5034 12519 1 0.16500 119244.000000
5034 13664 1 0.16500 119244.000000
5035 12519 1 0.16500 119244.000000
5035 14116 1 0.16500 119244.000000
5036 12520 1 0.16500 119244.000000
5036 15290 1 0.16500 119244.000000
5037 12520 1 0.16500 119244.000000
5037 14036 1 0.16500 119244.000000
5038 14797 1 0.16500 119244.000000
5038 21141 1 0.16500 119244.000000
5039 12521 1 0.16500 119244.000000
5039 22521 1 0.16500 119244.000000
5040 12521 1 0.16500 119244.000000
5040 13769 1 0.16500 119244.000000
5041 12521 1 0.16500 119244.000000
5041 22773 1 0.16500 119244.000000
5042 12521 1 0.16500 119244.000000
5042 14067 1 0.16500 119244.000000
5043 21153 1 0.16500 119244.000000
5043 24510 1 0.16500 119244.000000
5044 14651 1 0.16500 119244.000000
5044 21153 1 0.16500 119244.000000
5045 12522 1 0.16500 119244.000000
5045 15906 1 0.16500 119244.000000
5046 12522 1 0.16500 119244.000000
5046 13705 1 0.16500 119244.000000
5047 12522 1 0.16500 119244.000000
5047 13417 1 0.16500 119244.000000
5048 12523 1 0.16500 119244.000000
5048 15181 1 0.16500 119244.000000
5049 15487 1 0.16500 119244.000000
5049 16163 1 0.16500 119244.000000
5050 12523 1 0.16500 119244.000000
5050 16163 1 0.16500 119244.000000
5051 12523 1 0.16500 119244.000000
5051 13074 1 0.16500 119244.000000
5052 12524 1 0.16500 119244.000000
5052 13503 1 0.16500 119244.000000
5053 12524 1 0.16500 119244.000000
5053 13957 1 0.16500 119244.000000
5054 17281 1 0.16500 119244.000000
5054 21165 1 0.16500 119244.000000
5055 13329 1 0.16500 119244.000000
5055 21165 1 0.16500 119244.000000
5056 12525 1 0.16500 119244.000000
5056 13261 1 0.16500 119244.000000
5057 12525 1 0.16500 119244.000000
5057 15951 1 0.16500 119244.000000
5058 12525 1 0.16500 119244.000000
5058 15666 1 0.16500 119244.000000
5059 15001 1 0.16500 119244.000000
5059 15952 1 0.16500 119244.000000
5060 12526 1 0.16500 119244.000000
5060 15148 1 0.16500 119244.000000
5061 12526 1 0.16500 119244.000000
5061 15001 1 0.16500 119244.000000
5062 12527 1 0.16500 119244.000000
5062 12771 1 0.16500 119244.000000
5063 12527 1 0.16500 119244.000000
5063 12693 1 0.16500 119244.000000
5064 12527 1 0.16500 119244.000000
5064 15854 1 0.16500 119244.000000
5065 12528 1 0.16500 119244.000000
5065 14337 1 0.16500 119244.000000
5066 12528 1 0.16500 119244.000000
5066 13757 1 0.16500 119244.000000
5067 12528 1 0.16500 119244.000000
5067 12949 1 0.16500 119244.000000
5068 12529 1 0.16500 119244.000000
5068 13773 1 0.16500 119244.000000
5069 12529 1 0.16500 119244.000000
5069 17421 1 0.16500 119244.000000
5070 12529 1 0.16500 119244.000000
5070 13936 1 0.16500 119244.000000
5071 12530 1 0.16500 119244.000000
5071 16213 1 0.16500 119244.000000
5072 12530 1 0.16500 119244.000000
5072 15517 1 0.16500 119244.000000
5073 12530 1 0.16500 119244.000000
5073 13196 1 0.16500 119244.000000
5074 12531 1 0.16500 119244.000000
5074 13675 1 0.16500 119244.000000
5075 12531 1 0.16500 119244.000000
5075 15175 1 0.16500 119244.000000
5076 12531 1 0.16500 119244.000000
5076 14116 1 0.16500 119244.000000
5077 12531 1 0.16500 119244.000000
5077 15168 1 0.16500 119244.000000
5078 12532 1 0.16500 119244.000000
5078 14031 1 0.16500 119244.000000
5079 12532 1 0.16500 119244.000000
5079 14272 1 0.16500 119244.000000
5080 12532 1 0.16500 119244.000000
5080 15671 1 0.16500 119244.000000
5081 12533 1 0.16500 119244.000000
5081 16197 1 0.16500 119244.000000
5082 12533 1 0.16500 119244.000000
5082 15377 1 0.16500 119244.000000
5083 12534 1 0.16500 119244.000000
5083 13953 1 0.16500 119244.000000
5084 12534 1 0.16500 119244.000000
5084 13945 1 0.16500 119244.000000
5085 12535 1 0.16500 119244.000000
5085 15149 1 0.16500 119244.000000
5086 12535 1 0.16500 119244.000000
5086 13385 1 0.16500 119244.000000
5087 12535 1 0.16500 119244.000000
5087 14663 1 0.16500 119244.000000
5088 12536 1 0.16500 119244.000000
5088 13154 1 0.16500 119244.000000
5089 12536 1 0.16500 119244.000000
5089 15573 1 0.16500 119244.000000
5090 12536 1 0.16500 119244.000000
5090 15198 1 0.16500 119244.000000
5091 12536 1 0.16500 119244.000000
5091 24754 1 0.16500 119244.000000
5092 12537 1 0.16500 119244.000000
5092 24366 1 0.16500 119244.000000
5093 12537 1 0.16500 119244.000000
5093 22473 1 0.16500 119244.000000
5094 12537 1 0.16500 119244.000000
5094 13531 1 0.16500 119244.000000
5095 12537 1 0.16500 119244.000000
5095 22725 1 0.16500 119244.000000
5096 12538 1 0.16500 119244.000000
5096 15676 1 0.16500 119244.000000
5097 12538 1 0.16500 119244.000000
5097 14076 1 0.16500 119244.000000
5098 12538 1 0.16500 119244.000000
5098 14135 1 0.16500 119244.000000
5099 12538 1 0.16500 119244.000000
5099 14406 1 0.16500 119244.000000
5100 12539 1 0.16500 119244.000000
5100 15675 1 0.16500 119244.000000
5101 12539 1 0.16500 119244.000000
5101 13802 1 0.16500 119244.000000
5102 12539 1 0.16500 119244.000000
5102 14395 1 0.16500 119244.000000
5103 12539 1 0.16500 119244.000000
5103 16001 1 0.16500 119244.000000
5104 12953 1 0.16500 119244.000000
5104 21177 1 0.16500 119244.000000
5105 21177 1 0.16500 119244.000000
5105 21681 1 0.16500 119244.000000
5106 12540 1 0.16500 119244.000000
5106 16201 1 0.16500 119244.000000
5107 11681 1 0.16500 119244.000000
5107 12540 1 0.16500 119244.000000
5108 12541 1 0.16500 119244.000000
5108 15078 1 0.16500 119244.000000
5109 12541 1 0.16500 119244.000000
5109 14702 1 0.16500 119244.000000
5110 12541 1 0.16500 119244.000000
5110 13884 1 0.16500 119244.000000
5111 12541 1 0.16500 119244.000000
5111 15183 1 0.16500 119244.000000
5112 12542 1 0.16500 119244.000000
5112 12820 1 0.16500 119244.000000
5113 12542 1 0.16500 119244.000000
5113 12925 1 0.16500 119244.000000
5114 12542 1 0.16500 119244.000000
5114 13363 1 0.16500 119244.000000
5115 12925 1 0.16500 119244.000000
5115 13417 1 0.16500 119244.000000
5116 12543 1 0.16500 119244.000000
5116 15849 1 0.16500 119244.000000
5117 12543 1 0.16500 119244.000000
5117 16190 1 0.16500 119244.000000
5118 12544 1 0.16500 119244.000000
5118 14905 1 0.16500 119244.000000
5119 12544 1 0.16500 119244.000000
5119 14814 1 0.16500 119244.000000
5120 12544 1 0.16500 119244.000000
5120 13545 1 0.16500 119244.000000
5121 12544 1 0.16500 119244.000000
5121 13476 1 0.16500 119244.000000
5122 12545 1 0.16500 119244.000000
5122 14252 1 0.16500 119244.000000
5123 12545 1 0.16500 119244.000000
5123 12546 1 0.16500 119244.000000
5124 12545 1 0.16500 119244.000000
5124 12632 1 0.16500 119244.000000
5125 12546 1 0.16500 119244.000000
5125 14129 1 0.16500 119244.000000
5126 12546 1 0.16500 119244.000000
5126 15921 1 0.16500 119244.000000
5127 12547 1 0.16500 119244.000000
5127 14234 1 0.16500 119244.000000
5128 12547 1 0.16500 119244.000000
5128 15134 1 0.16500 119244.000000
5129 12547 1 0.16500 119244.000000
5129 15660 1 0.16500 119244.000000
5130 21189 1 0.16500 119244.000000
5130 23907 1 0.16500 119244.000000
5131 13740 1 0.16500 119244.000000
5131 21189 1 0.16500 119244.000000
5132 13021 1 0.16500 119244.000000
5132 21189 1 0.16500 119244.000000
5133 12548 1 0.16500 119244.000000
5133 23625 1 0.16500 119244.000000
5134 12548 1 0.16500 119244.000000
5134 21285 1 0.16500 119244.000000
5135 14357 1 0.16500 119244.000000
5135 21201 1 0.16500 119244.000000
5136 13188 1 0.16500 119244.000000
5136 21201 1 0.16500 119244.000000
5137 12549 1 0.16500 119244.000000
5137 14855 1 0.16500 119244.000000
5138 11740 1 0.16500 119244.000000
5138 12549 1 0.16500 119244.000000
5139 12549 1 0.16500 119244.000000
5139 15206 1 0.16500 119244.000000
5140 12549 1 0.16500 119244.000000
5140 13540 1 0.16500 119244.000000
5141 17463 1 0.16500 119244.000000
5141 21213 1 0.16500 119244.000000
5142 16133 1 0.16500 119244.000000
5142 21213 1 0.16500 119244.000000
5143 14951 1 0.16500 119244.000000
5143 21213 1 0.16500 119244.000000
5144 12550 1 0.16500 119244.000000
5144 13487 1 0.16500 119244.000000
5145 12550 1 0.16500 119244.000000
5145 15294 1 0.16500 119244.000000
5146 12550 1 0.16500 119244.000000
5146 22581 1 0.16500 119244.000000
5147 12550 1 0.16500 119244.000000
5147 14703 1 0.16500 119244.000000
5148 12551 1 0.16500 119244.000000
5148 14893 1 0.16500 119244.000000
5149 12551 1 0.16500 119244.000000
5149 13593 1 0.16500 119244.000000
5150 12551 1 0.16500 119244.000000
5150 13993 1 0.16500 119244.000000
5151 12552 1 0.16500 119244.000000
5151 13650 1 0.16500 119244.000000
5152 12552 1 0.16500 119244.000000
5152 14384 1 0.16500 119244.000000
5153 12552 1 0.16500 119244.000000
5153 15356 1 0.16500 119244.000000
5154 12553 1 0.16500 119244.000000
5154 13961 1 0.16500 119244.000000
5155 12553 1 0.16500 119244.000000
5155 12614 1 0.16500 119244.000000
5156 12553 1 0.16500 119244.000000
5156 12665 1 0.16500 119244.000000
5157 11246 1 0.16500 119244.000000
5157 12554 1 0.16500 119244.000000
5158 12554 1 0.16500 119244.000000
5158 12605 1 0.16500 119244.000000
5159 12554 1 0.16500 119244.000000
5159 12874 1 0.16500 119244.000000
5160 12554 1 0.16500 119244.000000
5160 13950 1 0.16500 119244.000000
5161 11504 1 0.16500 119244.000000
5161 16024 1 0.16500 119244.000000
5162 12555 1 0.16500 119244.000000
5162 16024 1 0.16500 119244.000000
5163 13140 1 0.16500 119244.000000
5163 21237 1 0.16500 119244.000000
5164 14647 1 0.16500 119244.000000
5164 21237 1 0.16500 119244.000000
5165 12556 1 0.16500 119244.000000
5165 15202 1 0.16500 119244.000000
5166 12556 1 0.16500 119244.000000
5166 12915 1 0.16500 119244.000000
5167 12557 1 0.16500 119244.000000
5167 15900 1 0.16500 119244.000000
5168 12557 1 0.16500 119244.000000
5168 16100 1 0.16500 119244.000000
5169 12558 1 0.16500 119244.000000
5169 14266 1 0.16500 119244.000000
5170 12558 1 0.16500 119244.000000
5170 15322 1 0.16500 119244.000000
5171 12559 1 0.16500 119244.000000
5171 21333 1 0.16500 119244.000000
5172 21249 1 0.16500 119244.000000
5172 21561 1 0.16500 119244.000000
5173 17659 1 0.16500 119244.000000
5173 21261 1 0.16500 119244.000000
5174 15055 1 0.16500 119244.000000
5174 21261 1 0.16500 119244.000000
5175 12560 1 0.16500 119244.000000
5175 16623 1 0.16500 119244.000000
5176 12560 1 0.16500 119244.000000
5176 15339 1 0.16500 119244.000000
5177 12560 1 0.16500 119244.000000
5177 15578 1 0.16500 119244.000000
5178 12560 1 0.16500 119244.000000
5178 18897 1 0.16500 119244.000000
5179 12561 1 0.16500 119244.000000
5179 14635 1 0.16500 119244.000000
5180 12561 1 0.16500 119244.000000
5180 14927 1 0.16500 119244.000000
5181 12561 1 0.16500 119244.000000
5181 12625 1 0.16500 119244.000000
5182 12562 1 0.16500 119244.000000
5182 17183 1 0.16500 119244.000000
5183 12562 1 0.16500 119244.000000
5183 23049 1 0.16500 119244.000000
5184 12562 1 0.16500 119244.000000
5184 14944 1 0.16500 119244.000000
5185 12563 1 0.16500 119244.000000
5185 15135 1 0.16500 119244.000000
5186 12563 1 0.16500 119244.000000
5186 15856 1 0.16500 119244.000000
5187 12563 1 0.16500 119244.000000
5187 13277 1 0.16500 119244.000000
5188 21273 1 0.16500 119244.000000
5188 24507 1 0.16500 119244.000000
5189 14923 1 0.16500 119244.000000
5189 21273 1 0.16500 119244.000000
5190 12564 1 0.16500 119244.000000
5190 15441 1 0.16500 119244.000000
5191 12565 1 0.16500 119244.000000
5191 13677 1 0.16500 119244.000000
5192 12565 1 0.16500 119244.000000
5192 13809 1 0.16500 119244.000000
5193 12565 1 0.16500 119244.000000
5193 13462 1 0.16500 119244.000000
5194 12566 1 0.16500 119244.000000
5194 14555 1 0.16500 119244.000000
5195 12566 1 0.16500 119244.000000
5195 15807 1 0.16500 119244.000000
5196 12566 1 0.16500 119244.000000
5196 13663 1 0.16500 119244.000000
5197 11543 1 0.16500 119244.000000
5197 12567 1 0.16500 119244.000000
5198 12567 1 0.16500 119244.000000
5198 16028 1 0.16500 119244.000000
5199 12567 1 0.16500 119244.000000
5199 13433 1 0.16500 119244.000000
5200 12568 1 0.16500 119244.000000
5200 16167 1 0.16500 119244.000000
5201 12568 1 0.16500 119244.000000
5201 13133 1 0.16500 119244.000000
5202 12568 1 0.16500 119244.000000
5202 13104 1 0.16500 119244.000000
5203 12569 1 0.16500 119244.000000
5203 13856 1 0.16500 119244.000000
5204 11556 1 0.16500 119244.000000
5204 12569 1 0.16500 119244.000000
5205 12569 1 0.16500 119244.000000
5205 12717 1 0.16500 119244.000000
5206 12570 1 0.16500 119244.000000
5206 13922 1 0.16500 119244.000000
5207 13239 1 0.16500 119244.000000
5207 13922 1 0.16500 119244.000000
5208 12570 1 0.16500 119244.000000
5208 13943 1 0.16500 119244.000000
5209 12570 1 0.16500 119244.000000
5209 15385 1 0.16500 119244.000000
5210 12571 1 0.16500 119244.000000
5210 13508 1 0.16500 119244.000000
5211 12571 1 0.16500 119244.000000
5211 14455 1 0.16500 119244.000000
5212 12571 1 0.16500 119244.000000
5212 13912 1 0.16500 119244.000000
5213 12571 1 0.16500 119244.000000
5213 15860 1 0.16500 119244.000000
5214 12572 1 0.16500 119244.000000
5214 12722 1 0.16500 119244.000000
5215 12572 1 0.16500 119244.000000
5215 16046 1 0.16500 119244.000000
5216 12572 1 0.16500 119244.000000
5216 23685 1 0.16500 119244.000000
5217 12573 1 0.16500 119244.000000
5217 12780 1 0.16500 119244.000000
5218 12573 1 0.16500 119244.000000
5218 22065 1 0.16500 119244.000000
5219 12573 1 0.16500 119244.000000
5219 12939 1 0.16500 119244.000000
5220 12573 1 0.16500 119244.000000
5220 24435 1 0.16500 119244.000000
5221 15467 1 0.16500 119244.000000
5221 21285 1 0.16500 119244.000000
5222 12574 1 0.16500 119244.000000
5222 15969 1 0.16500 119244.000000
5223 13737 1 0.16500 119244.000000
5223 14523 1 0.16500 119244.000000
5224 12575 1 0.16500 119244.000000
5224 13737 1 0.16500 119244.000000
5225 12575 1 0.16500 119244.000000
5225 15800 1 0.16500 119244.000000
5226 12575 1 0.16500 119244.000000
5226 15785 1 0.16500 119244.000000
5227 12576 1 0.16500 119244.000000
5227 15791 1 0.16500 119244.000000
5228 12576 1 0.16500 119244.000000
5228 14610 1 0.16500 119244.000000
5229 12576 1 0.16500 119244.000000
5229 13086 1 0.16500 119244.000000
5230 12576 1 0.16500 119244.000000
5230 23970 1 0.16500 119244.000000
5231 15107 1 0.16500 119244.000000
5231 15201 1 0.16500 119244.000000
5232 12577 1 0.16500 119244.000000
5232 13073 1 0.16500 119244.000000
5233 12577 1 0.16500 119244.000000
5233 15107 1 0.16500 119244.000000
5234 21297 1 0.16500 119244.000000
5234 21993 1 0.16500 119244.000000
5235 14251 1 0.16500 119244.000000
5235 21297 1 0.16500 119244.000000
5236 12578 1 0.16500 119244.000000
5236 13378 1 0.16500 119244.000000
5237 12578 1 0.16500 119244.000000
5237 15497 1 0.16500 119244.000000
5238 12579 1 0.16500 119244.000000
5238 15624 1 0.16500 119244.000000
5239 14453 1 0.16500 119244.000000
5239 15624 1 0.16500 119244.000000
5240 12579 1 0.16500 119244.000000
5240 14616 1 0.16500 119244.000000
5241 12579 1 0.16500 119244.000000
5241 14218 1 0.16500 119244.000000
5242 12580 1 0.16500 119244.000000
5242 13411 1 0.16500 119244.000000
5243 12580 1 0.16500 119244.000000
5243 14682 1 0.16500 119244.000000
5244 12580 1 0.16500 119244.000000
5244 15651 1 0.16500 119244.000000
5245 12580 1 0.16500 119244.000000
5245 13045 1 0.16500 119244.000000
5246 12581 1 0.16500 119244.000000
5246 13220 1 0.16500 119244.000000
5247 12581 1 0.16500 119244.000000
5247 13418 1 0.16500 119244.000000
5248 12581 1 0.16500 119244.000000
5248 13272 1 0.16500 119244.000000
5249 12582 1 0.16500 119244.000000
5249 13829 1 0.16500 119244.000000
5250 12582 1 0.16500 119244.000000
5250 13764 1 0.16500 119244.000000
5251 12582 1 0.16500 119244.000000
5251 22197 1 0.16500 119244.000000
5252 15355 1 0.16500 119244.000000
5252 15492 1 0.16500 119244.000000
5253 12583 1 0.16500 119244.000000
5253 15492 1 0.16500 119244.000000
5254 12583 1 0.16500 119244.000000
5254 14833 1 0.16500 119244.000000
5255 12583 1 0.16500 119244.000000
5255 15533 1 0.16500 119244.000000
5256 21309 1 0.16500 119244.000000
5256 23457 1 0.16500 119244.000000
5257 17533 1 0.16500 119244.000000
5257 21309 1 0.16500 119244.000000
5258 12584 1 0.16500 119244.000000
5258 17071 1 0.16500 119244.000000
5259 12584 1 0.16500 119244.000000
5259 14794 1 0.16500 119244.000000
5260 15557 1 0.16500 119244.000000
5260 21321 1 0.16500 119244.000000
5261 13416 1 0.16500 119244.000000
5261 21321 1 0.16500 119244.000000
5262 12585 1 0.16500 119244.000000
5262 16090 1 0.16500 119244.000000
5263 12585 1 0.16500 119244.000000
5263 15649 1 0.16500 119244.000000
5264 12585 1 0.16500 119244.000000
5264 14983 1 0.16500 119244.000000
5265 12586 1 0.16500 119244.000000
5265 14183 1 0.16500 119244.000000
5266 12586 1 0.16500 119244.000000
5266 16090 1 0.16500 119244.000000
5267 12587 1 0.16500 119244.000000
5267 13589 1 0.16500 119244.000000
5268 12587 1 0.16500 119244.000000
5268 16315 1 0.16500 119244.000000
5269 12587 1 0.16500 119244.000000
5269 24549 1 0.16500 119244.000000
5270 12587 1 0.16500 119244.000000
5270 24441 1 0.16500 119244.000000
5271 12588 1 0.16500 119244.000000
5271 14111 1 0.16500 119244.000000
5272 12588 1 0.16500 119244.000000
5272 14916 1 0.16500 119244.000000
5273 12588 1 0.16500 119244.000000
5273 13293 1 0.16500 119244.000000
5274 12589 1 0.16500 119244.000000
5274 14660 1 0.16500 119244.000000
5275 12589 1 0.16500 119244.000000
5275 13927 1 0.16500 119244.000000
5276 12589 1 0.16500 119244.000000
5276 12629 1 0.16500 119244.000000
5277 12590 1 0.16500 119244.000000
5277 13333 1 0.16500 119244.000000
5278 12590 1 0.16500 119244.000000
5278 15890 1 0.16500 119244.000000
5279 12590 1 0.16500 119244.000000
5279 15221 1 0.16500 119244.000000
5280 12590 1 0.16500 119244.000000
5280 14340 1 0.16500 119244.000000
5281 12591 1 0.16500 119244.000000
5281 13875 1 0.16500 119244.000000
5282 12591 1 0.16500 119244.000000
5282 15853 1 0.16500 119244.000000
5283 12591 1 0.16500 119244.000000
5283 12774 1 0.16500 119244.000000
5284 12591 1 0.16500 119244.000000
5284 13904 1 0.16500 119244.000000
5285 12592 1 0.16500 119244.000000
5285 16177 1 0.16500 119244.000000
5286 12592 1 0.16500 119244.000000
5286 15256 1 0.16500 119244.000000
5287 21333 1 0.16500 119244.000000
5287 24117 1 0.16500 119244.000000
5288 21333 1 0.16500 119244.000000
5288 22689 1 0.16500 119244.000000
5289 12593 1 0.16500 119244.000000
5289 15647 1 0.16500 119244.000000
5290 12593 1 0.16500 119244.000000
5290 13013 1 0.16500 119244.000000
5291 12593 1 0.16500 119244.000000
5291 13392 1 0.16500 119244.000000
5292 12594 1 0.16500 119244.000000
5292 13631 1 0.16500 119244.000000
5293 12594 1 0.16500 119244.000000
5293 12904 1 0.16500 119244.000000
5294 12594 1 0.16500 119244.000000
5294 14656 1 0.16500 119244.000000
5295 12595 1 0.16500 119244.000000
5295 14315 1 0.16500 119244.000000
5296 12595 1 0.16500 119244.000000
5296 13317 1 0.16500 119244.000000
5297 12595 1 0.16500 119244.000000
5297 24105 1 0.16500 119244.000000
5298 13203 1 0.16500 119244.000000
5298 21345 1 0.16500 119244.000000
5299 21345 1 0.16500 119244.000000
5299 23085 1 0.16500 119244.000000
5300 11301 1 0.16500 119244.000000
5300 12596 1 0.16500 119244.000000
5301 12596 1 0.16500 119244.000000
5301 14984 1 0.16500 119244.000000
5302 12596 1 0.16500 119244.000000
5302 14550 1 0.16500 119244.000000
5303 12597 1 0.16500 119244.000000
5303 13427 1 0.16500 119244.000000
5304 12597 1 0.16500 119244.000000
5304 13861 1 0.16500 119244.000000
5305 12598 1 0.16500 119244.000000
5305 13910 1 0.16500 119244.000000
5306 12598 1 0.16500 119244.000000
5306 15003 1 0.16500 119244.000000
5307 12598 1 0.16500 119244.000000
5307 23421 1 0.16500 119244.000000
5308 12599 1 0.16500 119244.000000
5308 12609 1 0.16500 119244.000000
5309 12599 1 0.16500 119244.000000
5309 13745 1 0.16500 119244.000000
5310 12599 1 0.16500 119244.000000
5310 13724 1 0.16500 119244.000000
5311 12599 1 0.16500 119244.000000
5311 13539 1 0.16500 119244.000000
5312 12600 1 0.16500 119244.000000
5312 12975 1 0.16500 119244.000000
5313 12601 1 0.16500 119244.000000
5313 13570 1 0.16500 119244.000000
5314 12601 1 0.16500 119244.000000
5314 13840 1 0.16500 119244.000000
5315 12601 1 0.16500 119244.000000
5315 13929 1 0.16500 119244.000000
5316 12601 1 0.16500 119244.000000
5316 15746 1 0.16500 119244.000000
5317 12602 1 0.16500 119244.000000
5317 12721 1 0.16500 119244.000000
5318 12602 1 0.16500 119244.000000
5318 12642 1 0.16500 119244.000000
5319 12602 1 0.16500 119244.000000
5319 13043 1 0.16500 119244.000000
5320 12602 1 0.16500 119244.000000
5320 15367 1 0.16500 119244.000000
5321 12603 1 0.16500 119244.000000
5321 14496 1 0.16500 119244.000000
5322 12603 1 0.16500 119244.000000
5322 22473 1 0.16500 119244.000000
5323 12603 1 0.16500 119244.000000
5323 13936 1 0.16500 119244.000000
5324 15986 1 0.16500 119244.000000
5324 21357 1 0.16500 119244.000000
5325 21357 1 0.16500 119244.000000
5325 23973 1 0.16500 119244.000000
5326 12604 1 0.16500 119244.000000
5326 13992 1 0.16500 119244.000000
5327 12604 1 0.16500 119244.000000
5327 14937 1 0.16500 119244.000000
5328 12604 1 0.16500 119244.000000
5328 13448 1 0.16500 119244.000000
5329 12605 1 0.16500 119244.000000
5329 14051 1 0.16500 119244.000000
5330 12606 1 0.16500 119244.000000
5330 13603 1 0.16500 119244.000000
5331 12606 1 0.16500 119244.000000
5331 14294 1 0.16500 119244.000000
5332 12606 1 0.16500 119244.000000
5332 15989 1 0.16500 119244.000000
5333 12607 1 0.16500 119244.000000
5333 17967 1 0.16500 119244.000000
5334 12607 1 0.16500 119244.000000
5334 14859 1 0.16500 119244.000000
5335 13511 1 0.16500 119244.000000
5335 15163 1 0.16500 119244.000000
5336 12608 1 0.16500 119244.000000
5336 13752 1 0.16500 119244.000000
5337 13752 1 0.16500 119244.000000
5337 15163 1 0.16500 119244.000000
5338 13925 1 0.16500 119244.000000
5338 15163 1 0.16500 119244.000000
5339 12609 1 0.16500 119244.000000
5339 15717 1 0.16500 119244.000000
5340 12609 1 0.16500 119244.000000
5340 12932 1 0.16500 119244.000000
5341 12609 1 0.16500 119244.000000
5341 15176 1 0.16500 119244.000000
5342 12610 1 0.16500 119244.000000
5342 15296 1 0.16500 119244.000000
5343 12610 1 0.16500 119244.000000
5343 15317 1 0.16500 119244.000000
5344 21369 1 0.16500 119244.000000
5344 23589 1 0.16500 119244.000000
5345 12611 1 0.16500 119244.000000
5345 13312 1 0.16500 119244.000000
5346 12611 1 0.16500 119244.000000
5346 12769 1 0.16500 119244.000000
5347 12611 1 0.16500 119244.000000
5347 14619 1 0.16500 119244.000000
5348 12612 1 0.16500 119244.000000
5348 23829 1 0.16500 119244.000000
5349 12612 1 0.16500 119244.000000
5349 15462 1 0.16500 119244.000000
5350 12612 1 0.16500 119244.000000
5350 13383 1 0.16500 119244.000000
5351 12613 1 0.16500 119244.000000
5351 13078 1 0.16500 119244.000000
5352 21381 1 0.16500 119244.000000
5352 23025 1 0.16500 119244.000000
5353 15580 1 0.16500 119244.000000
5353 21393 1 0.16500 119244.000000
5354 12614 1 0.16500 119244.000000
5354 14951 1 0.16500 119244.000000
5355 12614 1 0.16500 119244.000000
5355 13225 1 0.16500 119244.000000
5356 21405 1 0.16500 119244.000000
5356 24402 1 0.16500 119244.000000
5357 12615 1 0.16500 119244.000000
5357 12661 1 0.16500 119244.000000
5358 12615 1 0.16500 119244.000000
5358 16119 1 0.16500 119244.000000
5359 11670 1 0.16500 119244.000000
5359 12615 1 0.16500 119244.000000
5360 12615 1 0.16500 119244.000000
5360 13564 1 0.16500 119244.000000
5361 12616 1 0.16500 119244.000000
5361 16413 1 0.16500 119244.000000
5362 12616 1 0.16500 119244.000000
5362 15635 1 0.16500 119244.000000
5363 12616 1 0.16500 119244.000000
5363 13992 1 0.16500 119244.000000
5364 12617 1 0.16500 119244.000000
5364 15025 1 0.16500 119244.000000
5365 12617 1 0.16500 119244.000000
5365 15357 1 0.16500 119244.000000
5366 12618 1 0.16500 119244.000000
5366 15680 1 0.16500 119244.000000
5367 12618 1 0.16500 119244.000000
5367 13396 1 0.16500 119244.000000
5368 12618 1 0.16500 119244.000000
5368 15361 1 0.16500 119244.000000
5369 12619 1 0.16500 119244.000000
5369 13544 1 0.16500 119244.000000
5370 12619 1 0.16500 119244.000000
5370 12633 1 0.16500 119244.000000
5371 12619 1 0.16500 119244.000000
5371 15207 1 0.16500 119244.000000
5372 12620 1 0.16500 119244.000000
5372 14371 1 0.16500 119244.000000
5373 15566 1 0.16500 119244.000000
5373 21417 1 0.16500 119244.000000
5374 21417 1 0.16500 119244.000000
5374 23061 1 0.16500 119244.000000
5375 13202 1 0.16500 119244.000000
5375 14109 1 0.16500 119244.000000
5376 13202 1 0.16500 119244.000000
5376 15853 1 0.16500 119244.000000
5377 12621 1 0.16500 119244.000000
5377 15207 1 0.16500 119244.000000
5378 12621 1 0.16500 119244.000000
5378 14920 1 0.16500 119244.000000
5379 12622 1 0.16500 119244.000000
5379 15329 1 0.16500 119244.000000
5380 11961 1 0.16500 119244.000000
5380 12622 1 0.16500 119244.000000
5381 12623 1 0.16500 119244.000000
5381 15515 1 0.16500 119244.000000
5382 12624 1 0.16500 119244.000000
5382 13992 1 0.16500 119244.000000
5383 12624 1 0.16500 119244.000000
5383 13490 1 0.16500 119244.000000
5384 12624 1 0.16500 119244.000000
5384 12735 1 0.16500 119244.000000
5385 12625 1 0.16500 119244.000000
5385 15592 1 0.16500 119244.000000
5386 12625 1 0.16500 119244.000000
5386 13157 1 0.16500 119244.000000
5387 12625 1 0.16500 119244.000000
5387 13514 1 0.16500 119244.000000
5388 12626 1 0.16500 119244.000000
5388 13714 1 0.16500 119244.000000
5389 12626 1 0.16500 119244.000000
5389 13268 1 0.16500 119244.000000
5390 12626 1 0.16500 119244.000000
5390 13059 1 0.16500 119244.000000
5391 14967 1 0.16500 119244.000000
5391 21429 1 0.16500 119244.000000
5392 21429 1 0.16500 119244.000000
5392 24096 1 0.16500 119244.000000
5393 12106 1 0.16500 119244.000000
5393 21441 1 0.16500 119244.000000
5394 15590 1 0.16500 119244.000000
5394 21441 1 0.16500 119244.000000
5395 12627 1 0.16500 119244.000000
5395 12795 1 0.16500 119244.000000
5396 12627 1 0.16500 119244.000000
5396 12718 1 0.16500 119244.000000
5397 12627 1 0.16500 119244.000000
5397 13030 1 0.16500 119244.000000
5398 12627 1 0.16500 119244.000000
5398 14290 1 0.16500 119244.000000
5399 12628 1 0.16500 119244.000000
5399 16086 1 0.16500 119244.000000
5400 12628 1 0.16500 119244.000000
5400 16011 1 0.16500 119244.000000
5401 12628 1 0.16500 119244.000000
5401 13016 1 0.16500 119244.000000
5402 12628 1 0.16500 119244.000000
5402 13578 1 0.16500 119244.000000
5403 12629 1 0.16500 119244.000000
5403 13334 1 0.16500 119244.000000
5404 12629 1 0.16500 119244.000000
5404 12648 1 0.16500 119244.000000
5405 12629 1 0.16500 119244.000000
5405 14846 1 0.16500 119244.000000
5406 12630 1 0.16500 119244.000000
5406 13653 1 0.16500 119244.000000
5407 12630 1 0.16500 119244.000000
5407 13094 1 0.16500 119244.000000
5408 12630 1 0.16500 119244.000000
5408 13105 1 0.16500 119244.000000
5409 12631 1 0.16500 119244.000000
5409 15423 1 0.16500 119244.000000
5410 11778 1 0.16500 119244.000000
5410 12631 1 0.16500 119244.000000
5411 12632 1 0.16500 119244.000000
5411 15445 1 0.16500 119244.000000
5412 12632 1 0.16500 119244.000000
5412 14883 1 0.16500 119244.000000
5413 15771 1 0.16500 119244.000000
5413 21453 1 0.16500 119244.000000
5414 21453 1 0.16500 119244.000000
5414 23931 1 0.16500 119244.000000
5415 21465 1 0.16500 119244.000000
5415 24600 1 0.16500 119244.000000
5416 13498 1 0.16500 119244.000000
5416 21465 1 0.16500 119244.000000
5417 12633 1 0.16500 119244.000000
5417 15898 1 0.16500 119244.000000
5418 12633 1 0.16500 119244.000000
5418 16095 1 0.16500 119244.000000
5419 12621 1 0.16500 119244.000000
5419 12633 1 0.16500 119244.000000
5420 12634 1 0.16500 119244.000000
5420 14799 1 0.16500 119244.000000
5421 12634 1 0.16500 119244.000000
5421 13847 1 0.16500 119244.000000
5422 12634 1 0.16500 119244.000000
5422 13145 1 0.16500 119244.000000
5423 12634 1 0.16500 119244.000000
5423 15981 1 0.16500 119244.000000
5424 12635 1 0.16500 119244.000000
5424 22269 1 0.16500 119244.000000
5425 12635 1 0.16500 119244.000000
5425 14618 1 0.16500 119244.000000
5426 12635 1 0.16500 119244.000000
5426 15160 1 0.16500 119244.000000
5427 21489 1 0.16500 119244.000000
5427 23937 1 0.16500 119244.000000
5428 21489 1 0.16500 119244.000000
5428 24210 1 0.16500 119244.000000
5429 12636 1 0.16500 119244.000000
5429 13425 1 0.16500 119244.000000
5430 12636 1 0.16500 119244.000000
5430 14540 1 0.16500 119244.000000
5431 12637 1 0.16500 119244.000000
5431 13118 1 0.16500 119244.000000
5432 12637 1 0.16500 119244.000000
5432 14198 1 0.16500 119244.000000
5433 12637 1 0.16500 119244.000000
5433 13132 1 0.16500 119244.000000
5434 12638 1 0.16500 119244.000000
5434 14089 1 0.16500 119244.000000
5435 12638 1 0.16500 119244.000000
5435 16058 1 0.16500 119244.000000
5436 12638 1 0.16500 119244.000000
5436 16197 1 0.16500 119244.000000
5437 12639 1 0.16500 119244.000000
5437 17757 1 0.16500 119244.000000
5438 12639 1 0.16500 119244.000000
5438 14085 1 0.16500 119244.000000
5439 12639 1 0.16500 119244.000000
5439 12667 1 0.16500 119244.000000
5440 19749 1 0.16500 119244.000000
5440 23217 1 0.16500 119244.000000
5441 12640 1 0.16500 119244.000000
5441 14968 1 0.16500 119244.000000
5442 12640 1 0.16500 119244.000000
5442 24270 1 0.16500 119244.000000
5443 12640 1 0.16500 119244.000000
5443 13178 1 0.16500 119244.000000
5444 14154 1 0.16500 119244.000000
5444 16231 1 0.16500 119244.000000
5445 13814 1 0.16500 119244.000000
5445 16013 1 0.16500 119244.000000
5446 12641 1 0.16500 119244.000000
5446 13814 1 0.16500 119244.000000
5447 12641 1 0.16500 119244.000000
5447 15400 1 0.16500 119244.000000
5448 12642 1 0.16500 119244.000000
5448 17533 1 0.16500 119244.000000
5449 12642 1 0.16500 119244.000000
5449 15765 1 0.16500 119244.000000
5450 11433 1 0.16500 119244.000000
5450 12643 1 0.16500 119244.000000
5451 11629 1 0.16500 119244.000000
5451 14591 1 0.16500 119244.000000
5452 11629 1 0.16500 119244.000000
5452 14602 1 0.16500 119244.000000
5453 12644 1 0.16500 119244.000000
5453 14557 1 0.16500 119244.000000
5454 12644 1 0.16500 119244.000000
5454 15587 1 0.16500 119244.000000
5455 12644 1 0.16500 119244.000000
5455 15274 1 0.16500 119244.000000
5456 12645 1 0.16500 119244.000000
5456 16161 1 0.16500 119244.000000
5457 12645 1 0.16500 119244.000000
5457 15277 1 0.16500 119244.000000
5458 12645 1 0.16500 119244.000000
5458 14955 1 0.16500 119244.000000
5459 12645 1 0.16500 119244.000000
5459 13672 1 0.16500 119244.000000
5460 12646 1 0.16500 119244.000000
5460 16679 1 0.16500 119244.000000
5461 12646 1 0.16500 119244.000000
5461 15083 1 0.16500 119244.000000
5462 12646 1 0.16500 119244.000000
5462 17589 1 0.16500 119244.000000
5463 12646 1 0.16500 119244.000000
5463 23097 1 0.16500 119244.000000
5464 12864 1 0.16500 119244.000000
5464 13017 1 0.16500 119244.000000
5465 12648 1 0.16500 119244.000000
5465 13307 1 0.16500 119244.000000
5466 12648 1 0.16500 119244.000000
5466 12864 1 0.16500 119244.000000
5467 21501 1 0.16500 119244.000000
5467 24195 1 0.16500 119244.000000
5468 21501 1 0.16500 119244.000000
5468 24576 1 0.16500 119244.000000
5469 12793 1 0.16500 119244.000000
5469 21501 1 0.16500 119244.000000
5470 12649 1 0.16500 119244.000000
5470 14221 1 0.16500 119244.000000
5471 12649 1 0.16500 119244.000000
5471 15281 1 0.16500 119244.000000
5472 16301 1 0.16500 119244.000000
5472 21513 1 0.16500 119244.000000
5473 21513 1 0.16500 119244.000000
5473 24378 1 0.16500 119244.000000
5474 12650 1 0.16500 119244.000000
5474 14926 1 0.16500 119244.000000
5475 12650 1 0.16500 119244.000000
5475 13255 1 0.16500 119244.000000
5476 11432 1 0.16500 119244.000000
5476 15631 1 0.16500 119244.000000
5477 12652 1 0.16500 119244.000000
5477 15882 1 0.16500 119244.000000
5478 12652 1 0.16500 119244.000000
5478 14445 1 0.16500 119244.000000
5479 12653 1 0.16500 119244.000000
5479 15539 1 0.16500 119244.000000
5480 12653 1 0.16500 119244.000000
5480 15192 1 0.16500 119244.000000
5481 12653 1 0.16500 119244.000000
5481 15975 1 0.16500 119244.000000
5482 12653 1 0.16500 119244.000000
5482 14102 1 0.16500 119244.000000
5483 12654 1 0.16500 119244.000000
5483 15782 1 0.16500 119244.000000
5484 12654 1 0.16500 119244.000000
5484 13565 1 0.16500 119244.000000
5485 12654 1 0.16500 119244.000000
5485 13148 1 0.16500 119244.000000
5486 12655 1 0.16500 119244.000000
5486 13476 1 0.16500 119244.000000
5487 12655 1 0.16500 119244.000000
5487 16192 1 0.16500 119244.000000
5488 12656 1 0.16500 119244.000000
5488 14285 1 0.16500 119244.000000
5489 12656 1 0.16500 119244.000000
5489 14654 1 0.16500 119244.000000
5490 12656 1 0.16500 119244.000000
5490 13538 1 0.16500 119244.000000
5491 12657 1 0.16500 119244.000000
5491 13951 1 0.16500 119244.000000
5492 12657 1 0.16500 119244.000000
5492 13904 1 0.16500 119244.000000
5493 12657 1 0.16500 119244.000000
5493 15149 1 0.16500 119244.000000
5494 12658 1 0.16500 119244.000000
5494 14222 1 0.16500 119244.000000
5495 12658 1 0.16500 119244.000000
5495 13895 1 0.16500 119244.000000
5496 16018 1 0.16500 119244.000000
5496 21525 1 0.16500 119244.000000
5497 15136 1 0.16500 119244.000000
5497 21525 1 0.16500 119244.000000
5498 16343 1 0.16500 119244.000000
5498 21525 1 0.16500 119244.000000
5499 12659 1 0.16500 119244.000000
5499 14774 1 0.16500 119244.000000
5500 12659 1 0.16500 119244.000000
5500 16003 1 0.16500 119244.000000
5501 21537 1 0.16500 119244.000000
5501 22725 1 0.16500 119244.000000
5502 14449 1 0.16500 119244.000000
5502 21537 1 0.16500 119244.000000
5503 15807 1 0.16500 119244.000000
5503 21537 1 0.16500 119244.000000
5504 12660 1 0.16500 119244.000000
5504 17505 1 0.16500 119244.000000
5505 12660 1 0.16500 119244.000000
5505 15532 1 0.16500 119244.000000
5506 12660 1 0.16500 119244.000000
5506 21621 1 0.16500 119244.000000
5507 12661 1 0.16500 119244.000000
5507 15561 1 0.16500 119244.000000
5508 12661 1 0.16500 119244.000000
5508 14740 1 0.16500 119244.000000
5509 12661 1 0.16500 119244.000000
5509 15273 1 0.16500 119244.000000
5510 12662 1 0.16500 119244.000000
5510 12934 1 0.16500 119244.000000
5511 12662 1 0.16500 119244.000000
5511 14173 1 0.16500 119244.000000
5512 12663 1 0.16500 119244.000000
5512 15835 1 0.16500 119244.000000
5513 12663 1 0.16500 119244.000000
5513 16190 1 0.16500 119244.000000
5514 12663 1 0.16500 119244.000000
5514 13981 1 0.16500 119244.000000
5515 12663 1 0.16500 119244.000000
5515 15044 1 0.16500 119244.000000
5516 15412 1 0.16500 119244.000000
5516 21549 1 0.16500 119244.000000
5517 12664 1 0.16500 119244.000000
5517 16161 1 0.16500 119244.000000
5518 12664 1 0.16500 119244.000000
5518 13467 1 0.16500 119244.000000
5519 12664 1 0.16500 119244.000000
5519 12960 1 0.16500 119244.000000
5520 12665 1 0.16500 119244.000000
5520 15017 1 0.16500 119244.000000
5521 12665 1 0.16500 119244.000000
5521 12717 1 0.16500 119244.000000
5522 12665 1 0.16500 119244.000000
5522 14958 1 0.16500 119244.000000
5523 12666 1 0.16500 119244.000000
5523 14179 1 0.16500 119244.000000
5524 12666 1 0.16500 119244.000000
5524 14141 1 0.16500 119244.000000
5525 12667 1 0.16500 119244.000000
5525 15930 1 0.16500 119244.000000
5526 13825 1 0.16500 119244.000000
5526 21561 1 0.16500 119244.000000
5527 21561 1 0.16500 119244.000000
5527 21825 1 0.16500 119244.000000
5528 12668 1 0.16500 119244.000000
5528 13522 1 0.16500 119244.000000
5529 12668 1 0.16500 119244.000000
5529 14667 1 0.16500 119244.000000
5530 12668 1 0.16500 119244.000000
5530 13172 1 0.16500 119244.000000
5531 12668 1 0.16500 119244.000000
5531 14107 1 0.16500 119244.000000
5532 12669 1 0.16500 119244.000000
5532 12856 1 0.16500 119244.000000
5533 12669 1 0.16500 119244.000000
5533 12919 1 0.16500 119244.000000
5534 12669 1 0.16500 119244.000000
5534 12920 1 0.16500 119244.000000
5535 12670 1 0.16500 119244.000000
5535 13474 1 0.16500 119244.000000
5536 12670 1 0.16500 119244.000000
5536 15842 1 0.16500 119244.000000
5537 12671 1 0.16500 119244.000000
5537 16078 1 0.16500 119244.000000
5538 12671 1 0.16500 119244.000000
5538 13049 1 0.16500 119244.000000
5539 12671 1 0.16500 119244.000000
5539 15130 1 0.16500 119244.000000
5540 21573 1 0.16500 119244.000000
5540 24618 1 0.16500 119244.000000
5541 13804 1 0.16500 119244.000000
5541 21573 1 0.16500 119244.000000
5542 12672 1 0.16500 119244.000000
5542 24679 1 0.16500 119244.000000
5543 12672 1 0.16500 119244.000000
5543 14970 1 0.16500 119244.000000
5544 12673 1 0.16500 119244.000000
5544 15820 1 0.16500 119244.000000
5545 13860 1 0.16500 119244.000000
5545 15559 1 0.16500 119244.000000
5546 12673 1 0.16500 119244.000000
5546 14055 1 0.16500 119244.000000
5547 12673 1 0.16500 119244.000000
5547 15559 1 0.16500 119244.000000
5548 12674 1 0.16500 119244.000000
5548 15642 1 0.16500 119244.000000
5549 12674 1 0.16500 119244.000000
5549 13751 1 0.16500 119244.000000
5550 12030 1 0.16500 119244.000000
5550 15503 1 0.16500 119244.000000
5551 15928 1 0.16500 119244.000000
5551 21585 1 0.16500 119244.000000
5552 13722 1 0.16500 119244.000000
5552 21585 1 0.16500 119244.000000
5553 12675 1 0.16500 119244.000000
5553 15631 1 0.16500 119244.000000
5554 12675 1 0.16500 119244.000000
5554 15013 1 0.16500 119244.000000
5555 12675 1 0.16500 119244.000000
5555 14014 1 0.16500 119244.000000
5556 12675 1 0.16500 119244.000000
5556 12881 1 0.16500 119244.000000
5557 12676 1 0.16500 119244.000000
5557 14998 1 0.16500 119244.000000
5558 12676 1 0.16500 119244.000000
5558 14258 1 0.16500 119244.000000
5559 12676 1 0.16500 119244.000000
5559 14022 1 0.16500 119244.000000
5560 12677 1 0.16500 119244.000000
5560 15915 1 0.16500 119244.000000
5561 12677 1 0.16500 119244.000000
5561 16917 1 0.16500 119244.000000
5562 12678 1 0.16500 119244.000000
5562 14083 1 0.16500 119244.000000
5563 12678 1 0.16500 119244.000000
5563 14467 1 0.16500 119244.000000
5564 12678 1 0.16500 119244.000000
5564 14058 1 0.16500 119244.000000
5565 12679 1 0.16500 119244.000000
5565 15318 1 0.16500 119244.000000
5566 12679 1 0.16500 119244.000000
5566 24644 1 0.16500 119244.000000
5567 12679 1 0.16500 119244.000000
5567 15544 1 0.16500 119244.000000
5568 12680 1 0.16500 119244.000000
5568 13811 1 0.16500 119244.000000
5569 12680 1 0.16500 119244.000000
5569 14224 1 0.16500 119244.000000
5570 12680 1 0.16500 119244.000000
5570 12694 1 0.16500 119244.000000
5571 12681 1 0.16500 119244.000000
5571 13340 1 0.16500 119244.000000
5572 21609 1 0.16500 119244.000000
5572 23289 1 0.16500 119244.000000
5573 15735 1 0.16500 119244.000000
5573 21609 1 0.16500 119244.000000
5574 12682 1 0.16500 119244.000000
5574 15575 1 0.16500 119244.000000
5575 12682 1 0.16500 119244.000000
5575 13435 1 0.16500 119244.000000
5576 12682 1 0.16500 119244.000000
5576 15806 1 0.16500 119244.000000
5577 11882 1 0.16500 119244.000000
5577 15217 1 0.16500 119244.000000
5578 15217 1 0.16500 119244.000000
5578 16245 1 0.16500 119244.000000
5579 13257 1 0.16500 119244.000000
5579 21621 1 0.16500 119244.000000
5580 15813 1 0.16500 119244.000000
5580 17743 1 0.16500 119244.000000
5581 17743 1 0.16500 119244.000000
5581 21621 1 0.16500 119244.000000
5582 12683 1 0.16500 119244.000000
5582 22317 1 0.16500 119244.000000
5583 12683 1 0.16500 119244.000000
5583 15227 1 0.16500 119244.000000
5584 12683 1 0.16500 119244.000000
5584 14104 1 0.16500 119244.000000
5585 12684 1 0.16500 119244.000000
5585 15527 1 0.16500 119244.000000
5586 12684 1 0.16500 119244.000000
5586 13297 1 0.16500 119244.000000
5587 12685 1 0.16500 119244.000000
5587 13819 1 0.16500 119244.000000
5588 12685 1 0.16500 119244.000000
5588 14756 1 0.16500 119244.000000
5589 12685 1 0.16500 119244.000000
5589 13184 1 0.16500 119244.000000
5590 12685 1 0.16500 119244.000000
5590 16162 1 0.16500 119244.000000
5591 12686 1 0.16500 119244.000000
5591 16206 1 0.16500 119244.000000
5592 12686 1 0.16500 119244.000000
5592 24177 1 0.16500 119244.000000
5593 12686 1 0.16500 119244.000000
5593 13538 1 0.16500 119244.000000
5594 12687 1 0.16500 119244.000000
5594 14186 1 0.16500 119244.000000
5595 12687 1 0.16500 119244.000000
5595 12839 1 0.16500 119244.000000
5596 12687 1 0.16500 119244.000000
5596 15211 1 0.16500 119244.000000
5597 12687 1 0.16500 119244.000000
5597 15716 1 0.16500 119244.000000
5598 12688 1 0.16500 119244.000000
5598 15265 1 0.16500 119244.000000
5599 12688 1 0.16500 119244.000000
5599 12760 1 0.16500 119244.000000
5600 12689 1 0.16500 119244.000000
5600 15347 1 0.16500 119244.000000
5601 12689 1 0.16500 119244.000000
5601 13413 1 0.16500 119244.000000
5602 12690 1 0.16500 119244.000000
5602 14038 1 0.16500 119244.000000
5603 12690 1 0.16500 119244.000000
5603 14179 1 0.16500 119244.000000
5604 12690 1 0.16500 119244.000000
5604 13504 1 0.16500 119244.000000
5605 12691 1 0.16500 119244.000000
5605 14081 1 0.16500 119244.000000
5606 12691 1 0.16500 119244.000000
5606 14394 1 0.16500 119244.000000
5607 12691 1 0.16500 119244.000000
5607 13909 1 0.16500 119244.000000
5608 12691 1 0.16500 119244.000000
5608 13245 1 0.16500 119244.000000
5609 12692 1 0.16500 119244.000000
5609 13956 1 0.16500 119244.000000
5610 12692 1 0.16500 119244.000000
5610 14734 1 0.16500 119244.000000
5611 12692 1 0.16500 119244.000000
5611 16168 1 0.16500 119244.000000
5612 12693 1 0.16500 119244.000000
5612 15156 1 0.16500 119244.000000
5613 12693 1 0.16500 119244.000000
5613 15016 1 0.16500 119244.000000
5614 12693 1 0.16500 119244.000000
5614 15851 1 0.16500 119244.000000
5615 12694 1 0.16500 119244.000000
5615 13920 1 0.16500 119244.000000
5616 12694 1 0.16500 119244.000000
5616 15266 1 0.16500 119244.000000
5617 12694 1 0.16500 119244.000000
5617 14733 1 0.16500 119244.000000
5618 12695 1 0.16500 119244.000000
5618 15342 1 0.16500 119244.000000
5619 12695 1 0.16500 119244.000000
5619 14069 1 0.16500 119244.000000
5620 12695 1 0.16500 119244.000000
5620 13831 1 0.16500 119244.000000
5621 12695 1 0.16500 119244.000000
5621 13389 1 0.16500 119244.000000
5622 12696 1 0.16500 119244.000000
5622 14826 1 0.16500 119244.000000
5623 12696 1 0.16500 119244.000000
5623 16079 1 0.16500 119244.000000
5624 12696 1 0.16500 119244.000000
5624 14002 1 0.16500 119244.000000
5625 12696 1 0.16500 119244.000000
5625 14069 1 0.16500 119244.000000
5626 12697 1 0.16500 119244.000000
5626 15870 1 0.16500 119244.000000
5627 12698 1 0.16500 119244.000000
5627 24447 1 0.16500 119244.000000
5628 12698 1 0.16500 119244.000000
5628 14271 1 0.16500 119244.000000
5629 12699 1 0.16500 119244.000000
5629 13947 1 0.16500 119244.000000
5630 13501 1 0.16500 119244.000000
5630 21633 1 0.16500 119244.000000
5631 12700 1 0.16500 119244.000000
5631 13914 1 0.16500 119244.000000
5632 14901 1 0.16500 119244.000000
5632 15681 1 0.16500 119244.000000
5633 12700 1 0.16500 119244.000000
5633 15681 1 0.16500 119244.000000
5634 12700 1 0.16500 119244.000000
5634 13215 1 0.16500 119244.000000
5635 12701 1 0.16500 119244.000000
5635 15742 1 0.16500 119244.000000
5636 12701 1 0.16500 119244.000000
5636 15649 1 0.16500 119244.000000
5637 12701 1 0.16500 119244.000000
5637 12767 1 0.16500 119244.000000
5638 12701 1 0.16500 119244.000000
5638 13354 1 0.16500 119244.000000
5639 12702 1 0.16500 119244.000000
5639 14952 1 0.16500 119244.000000
5640 12702 1 0.16500 119244.000000
5640 13025 1 0.16500 119244.000000
5641 12702 1 0.16500 119244.000000
5641 15162 1 0.16500 119244.000000
5642 12703 1 0.16500 119244.000000
5642 14459 1 0.16500 119244.000000
5643 12703 1 0.16500 119244.000000
5643 15933 1 0.16500 119244.000000
5644 12703 1 0.16500 119244.000000
5644 13405 1 0.16500 119244.000000
5645 12703 1 0.16500 119244.000000
5645 14337 1 0.16500 119244.000000
5646 12704 1 0.16500 119244.000000
5646 13382 1 0.16500 119244.000000
5647 12704 1 0.16500 119244.000000
5647 15070 1 0.16500 119244.000000
5648 12704 1 0.16500 119244.000000
5648 14394 1 0.16500 119244.000000
5649 12705 1 0.16500 119244.000000
5649 16108 1 0.16500 119244.000000
5650 12705 1 0.16500 119244.000000
5650 13893 1 0.16500 119244.000000
5651 12705 1 0.16500 119244.000000
5651 14839 1 0.16500 119244.000000
5652 12705 1 0.16500 119244.000000
5652 16131 1 0.16500 119244.000000
5653 13701 1 0.16500 119244.000000
5653 14565 1 0.16500 119244.000000
5654 12706 1 0.16500 119244.000000
5654 13701 1 0.16500 119244.000000
5655 12706 1 0.16500 119244.000000
5655 14080 1 0.16500 119244.000000
5656 12707 1 0.16500 119244.000000
5656 13407 1 0.16500 119244.000000
5657 12707 1 0.16500 119244.000000
5657 13613 1 0.16500 119244.000000
5658 12707 1 0.16500 119244.000000
5658 15019 1 0.16500 119244.000000
5659 12707 1 0.16500 119244.000000
5659 15534 1 0.16500 119244.000000
5660 15383 1 0.16500 119244.000000
5660 19953 1 0.16500 119244.000000
5661 12708 1 0.16500 119244.000000
5661 12937 1 0.16500 119244.000000
5662 12708 1 0.16500 119244.000000
5662 15182 1 0.16500 119244.000000
5663 12708 1 0.16500 119244.000000
5663 13766 1 0.16500 119244.000000
5664 12709 1 0.16500 119244.000000
5664 13609 1 0.16500 119244.000000
5665 12709 1 0.16500 119244.000000
5665 12860 1 0.16500 119244.000000
5666 12709 1 0.16500 119244.000000
5666 22413 1 0.16500 119244.000000
5667 12710 1 0.16500 119244.000000
5667 14576 1 0.16500 119244.000000
5668 12710 1 0.16500 119244.000000
5668 16078 1 0.16500 119244.000000
5669 12710 1 0.16500 119244.000000
5669 14131 1 0.16500 119244.000000
5670 12711 1 0.16500 119244.000000
5670 13920 1 0.16500 119244.000000
5671 12711 1 0.16500 119244.000000
5671 24444 1 0.16500 119244.000000
5672 12711 1 0.16500 119244.000000
5672 12866 1 0.16500 119244.000000
5673 12711 1 0.16500 119244.000000
5673 24348 1 0.16500 119244.000000
5674 12712 1 0.16500 119244.000000
5674 13914 1 0.16500 119244.000000
5675 12712 1 0.16500 119244.000000
5675 12915 1 0.16500 119244.000000
5676 12712 1 0.16500 119244.000000
5676 13226 1 0.16500 119244.000000
5677 12712 1 0.16500 119244.000000
5677 12746 1 0.16500 119244.000000
5678 12713 1 0.16500 119244.000000
5678 14994 1 0.16500 119244.000000
5679 12713 1 0.16500 119244.000000
5679 13407 1 0.16500 119244.000000
5680 12713 1 0.16500 119244.000000
5680 15809 1 0.16500 119244.000000
5681 12714 1 0.16500 119244.000000
5681 16030 1 0.16500 119244.000000
5682 12714 1 0.16500 119244.000000
5682 14240 1 0.16500 119244.000000
5683 12715 1 0.16500 119244.000000
5683 14469 1 0.16500 119244.000000
5684 12715 1 0.16500 119244.000000
5684 14115 1 0.16500 119244.000000
5685 12715 1 0.16500 119244.000000
5685 15178 1 0.16500 119244.000000
5686 12716 1 0.16500 119244.000000
5686 15418 1 0.16500 119244.000000
5687 12716 1 0.16500 119244.000000
5687 14133 1 0.16500 119244.000000
5688 12716 1 0.16500 119244.000000
5688 13720 1 0.16500 119244.000000
5689 12717 1 0.16500 119244.000000
5689 14197 1 0.16500 119244.000000
5690 12717 1 0.16500 119244.000000
5690 14502 1 0.16500 119244.000000
5691 12718 1 0.16500 119244.000000
5691 15852 1 0.16500 119244.000000
5692 12718 1 0.16500 119244.000000
5692 13575 1 0.16500 119244.000000
5693 12718 1 0.16500 119244.000000
5693 14557 1 0.16500 119244.000000
5694 11677 1 0.16500 119244.000000
5694 13053 1 0.16500 119244.000000
5695 13053 1 0.16500 119244.000000
5695 15692 1 0.16500 119244.000000
5696 12720 1 0.16500 119244.000000
5696 14921 1 0.16500 119244.000000
5697 12720 1 0.16500 119244.000000
5697 14917 1 0.16500 119244.000000
5698 12720 1 0.16500 119244.000000
5698 15454 1 0.16500 119244.000000
5699 12720 1 0.16500 119244.000000
5699 15689 1 0.16500 119244.000000
5700 12721 1 0.16500 119244.000000
5700 12933 1 0.16500 119244.000000
5701 12721 1 0.16500 119244.000000
5701 15846 1 0.16500 119244.000000
5702 12721 1 0.16500 119244.000000
5702 15724 1 0.16500 119244.000000
5703 12722 1 0.16500 119244.000000
5703 14875 1 0.16500 119244.000000
5704 12722 1 0.16500 119244.000000
5704 12972 1 0.16500 119244.000000
5705 12722 1 0.16500 119244.000000
5705 15507 1 0.16500 119244.000000
5706 12765 1 0.16500 119244.000000
5706 13649 1 0.16500 119244.000000
5707 12723 1 0.16500 119244.000000
5707 14432 1 0.16500 119244.000000
5708 12723 1 0.16500 119244.000000
5708 12765 1 0.16500 119244.000000
5709 12724 1 0.16500 119244.000000
5709 17897 1 0.16500 119244.000000
5710 12724 1 0.16500 119244.000000
5710 13158 1 0.16500 119244.000000
5711 12725 1 0.16500 119244.000000
5711 13421 1 0.16500 119244.000000
5712 12725 1 0.16500 119244.000000
5712 13439 1 0.16500 119244.000000
5713 14103 1 0.16500 119244.000000
5713 21645 1 0.16500 119244.000000
5714 21645 1 0.16500 119244.000000
5714 22341 1 0.16500 119244.000000
5715 14215 1 0.16500 119244.000000
5715 21657 1 0.16500 119244.000000
5716 13129 1 0.16500 119244.000000
5716 21657 1 0.16500 119244.000000
5717 13655 1 0.16500 119244.000000
5717 21657 1 0.16500 119244.000000
5718 12726 1 0.16500 119244.000000
5718 14596 1 0.16500 119244.000000
5719 12726 1 0.16500 119244.000000
5719 13642 1 0.16500 119244.000000
5720 12726 1 0.16500 119244.000000
5720 15894 1 0.16500 119244.000000
5721 12726 1 0.16500 119244.000000
5721 15914 1 0.16500 119244.000000
5722 12727 1 0.16500 119244.000000
5722 14484 1 0.16500 119244.000000
5723 12727 1 0.16500 119244.000000
5723 14323 1 0.16500 119244.000000
5724 12727 1 0.16500 119244.000000
5724 15130 1 0.16500 119244.000000
5725 15680 1 0.16500 119244.000000
5725 21669 1 0.16500 119244.000000
5726 13677 1 0.16500 119244.000000
5726 21669 1 0.16500 119244.000000
5727 21669 1 0.16500 119244.000000
5727 22929 1 0.16500 119244.000000
5728 12728 1 0.16500 119244.000000
5728 14405 1 0.16500 119244.000000
5729 12728 1 0.16500 119244.000000
5729 13763 1 0.16500 119244.000000
5730 12728 1 0.16500 119244.000000
5730 14746 1 0.16500 119244.000000
5731 12729 1 0.16500 119244.000000
5731 14774 1 0.16500 119244.000000
5732 12729 1 0.16500 119244.000000
5732 13965 1 0.16500 119244.000000
5733 12730 1 0.16500 119244.000000
5733 13007 1 0.16500 119244.000000
5734 12730 1 0.16500 119244.000000
5734 13055 1 0.16500 119244.000000
5735 12731 1 0.16500 119244.000000
5735 24342 1 0.16500 119244.000000
5736 12731 1 0.16500 119244.000000
5736 13263 1 0.16500 119244.000000
5737 15836 1 0.16500 119244.000000
5737 16259 1 0.16500 119244.000000
5738 12732 1 0.16500 119244.000000
5738 15447 1 0.16500 119244.000000
5739 12732 1 0.16500 119244.000000
5739 13120 1 0.16500 119244.000000
5740 12732 1 0.16500 119244.000000
5740 15243 1 0.16500 119244.000000
5741 12732 1 0.16500 119244.000000
5741 14605 1 0.16500 119244.000000
5742 12733 1 0.16500 119244.000000
5742 15752 1 0.16500 119244.000000
5743 12733 1 0.16500 119244.000000
5743 12799 1 0.16500 119244.000000
5744 14678 1 0.16500 119244.000000
5744 15752 1 0.16500 119244.000000
5745 12563 1 0.16500 119244.000000
5745 12734 1 0.16500 119244.000000
5746 12734 1 0.16500 119244.000000
5746 13970 1 0.16500 119244.000000
5747 12735 1 0.16500 119244.000000
5747 14934 1 0.16500 119244.000000
5748 12735 1 0.16500 119244.000000
5748 14127 1 0.16500 119244.000000
5749 12736 1 0.16500 119244.000000
5749 14298 1 0.16500 119244.000000
5750 12736 1 0.16500 119244.000000
5750 13716 1 0.16500 119244.000000
5751 13728 1 0.16500 119244.000000
5751 21681 1 0.16500 119244.000000
5752 13803 1 0.16500 119244.000000
5752 21681 1 0.16500 119244.000000
5753 12737 1 0.16500 119244.000000
5753 13337 1 0.16500 119244.000000
5754 12737 1 0.16500 119244.000000
5754 12988 1 0.16500 119244.000000
5755 12737 1 0.16500 119244.000000
5755 15700 1 0.16500 119244.000000
5756 12738 1 0.16500 119244.000000
5756 14248 1 0.16500 119244.000000
5757 12738 1 0.16500 119244.000000
5757 14142 1 0.16500 119244.000000
5758 12738 1 0.16500 119244.000000
5758 13798 1 0.16500 119244.000000
5759 12739 1 0.16500 119244.000000
5759 14421 1 0.16500 119244.000000
5760 14421 1 0.16500 119244.000000
5760 16051 1 0.16500 119244.000000
5761 12740 1 0.16500 119244.000000
5761 14646 1 0.16500 119244.000000
5762 12740 1 0.16500 119244.000000
5762 16399 1 0.16500 119244.000000
5763 12740 1 0.16500 119244.000000
5763 24258 1 0.16500 119244.000000
5764 14351 1 0.16500 119244.000000
5764 14646 1 0.16500 119244.000000
5765 12741 1 0.16500 119244.000000
5765 13059 1 0.16500 119244.000000
5766 12741 1 0.16500 119244.000000
5766 15640 1 0.16500 119244.000000
5767 12742 1 0.16500 119244.000000
5767 15362 1 0.16500 119244.000000
5768 12742 1 0.16500 119244.000000
5768 14165 1 0.16500 119244.000000
5769 12742 1 0.16500 119244.000000
5769 15129 1 0.16500 119244.000000
5770 12742 1 0.16500 119244.000000
5770 13716 1 0.16500 119244.000000
5771 12743 1 0.16500 119244.000000
5771 14530 1 0.16500 119244.000000
5772 12744 1 0.16500 119244.000000
5772 15566 1 0.16500 119244.000000
5773 12744 1 0.16500 119244.000000
5773 14848 1 0.16500 119244.000000
5774 13476 1 0.16500 119244.000000
5774 21693 1 0.16500 119244.000000
5775 13368 1 0.16500 119244.000000
5775 21693 1 0.16500 119244.000000
5776 16023 1 0.16500 119244.000000
5776 21693 1 0.16500 119244.000000
5777 12745 1 0.16500 119244.000000
5777 12763 1 0.16500 119244.000000
5778 12745 1 0.16500 119244.000000
5778 13250 1 0.16500 119244.000000
5779 12745 1 0.16500 119244.000000
5779 14590 1 0.16500 119244.000000
5780 12746 1 0.16500 119244.000000
5780 13484 1 0.16500 119244.000000
5781 12746 1 0.16500 119244.000000
5781 13854 1 0.16500 119244.000000
5782 12746 1 0.16500 119244.000000
5782 13358 1 0.16500 119244.000000
5783 12747 1 0.16500 119244.000000
5783 14671 1 0.16500 119244.000000
5784 12747 1 0.16500 119244.000000
5784 12977 1 0.16500 119244.000000
5785 12747 1 0.16500 119244.000000
5785 14803 1 0.16500 119244.000000
5786 12748 1 0.16500 119244.000000
5786 24390 1 0.16500 119244.000000
5787 12749 1 0.16500 119244.000000
5787 13381 1 0.16500 119244.000000
5788 12749 1 0.16500 119244.000000
5788 15223 1 0.16500 119244.000000
5789 12749 1 0.16500 119244.000000
5789 13733 1 0.16500 119244.000000
5790 12749 1 0.16500 119244.000000
5790 15774 1 0.16500 119244.000000
5791 14973 1 0.16500 119244.000000
5791 15214 1 0.16500 119244.000000
5792 12750 1 0.16500 119244.000000
5792 14973 1 0.16500 119244.000000
5793 12750 1 0.16500 119244.000000
5793 14741 1 0.16500 119244.000000
5794 13056 1 0.16500 119244.000000
5794 13691 1 0.16500 119244.000000
5795 12751 1 0.16500 119244.000000
5795 14050 1 0.16500 119244.000000
5796 12751 1 0.16500 119244.000000
5796 13837 1 0.16500 119244.000000
5797 12751 1 0.16500 119244.000000
5797 13691 1 0.16500 119244.000000
5798 12752 1 0.16500 119244.000000
5798 13427 1 0.16500 119244.000000
5799 11301 1 0.16500 119244.000000
5799 12752 1 0.16500 119244.000000
5800 12752 1 0.16500 119244.000000
5800 14003 1 0.16500 119244.000000
5801 12752 1 0.16500 119244.000000
5801 13632 1 0.16500 119244.000000
5802 12753 1 0.16500 119244.000000
5802 13144 1 0.16500 119244.000000
5803 12754 1 0.16500 119244.000000
5803 15075 1 0.16500 119244.000000
5804 12754 1 0.16500 119244.000000
5804 14983 1 0.16500 119244.000000
5805 12754 1 0.16500 119244.000000
5805 15742 1 0.16500 119244.000000
5806 12755 1 0.16500 119244.000000
5806 15223 1 0.16500 119244.000000
5807 12755 1 0.16500 119244.000000
5807 14963 1 0.16500 119244.000000
5808 12755 1 0.16500 119244.000000
5808 14609 1 0.16500 119244.000000
5809 12755 1 0.16500 119244.000000
5809 15162 1 0.16500 119244.000000
5810 12756 1 0.16500 119244.000000
5810 15330 1 0.16500 119244.000000
5811 12756 1 0.16500 119244.000000
5811 14636 1 0.16500 119244.000000
5812 12757 1 0.16500 119244.000000
5812 12902 1 0.16500 119244.000000
5813 12757 1 0.16500 119244.000000
5813 13929 1 0.16500 119244.000000
5814 12757 1 0.16500 119244.000000
5814 12810 1 0.16500 119244.000000
5815 12758 1 0.16500 119244.000000
5815 16051 1 0.16500 119244.000000
5816 12758 1 0.16500 119244.000000
5816 15608 1 0.16500 119244.000000
5817 12758 1 0.16500 119244.000000
5817 13309 1 0.16500 119244.000000
5818 12759 1 0.16500 119244.000000
5818 15745 1 0.16500 119244.000000
5819 12759 1 0.16500 119244.000000
5819 15987 1 0.16500 119244.000000
5820 12688 1 0.16500 119244.000000
5820 13536 1 0.16500 119244.000000
5821 12760 1 0.16500 119244.000000
5821 13920 1 0.16500 119244.000000
5822 12761 1 0.16500 119244.000000
5822 14263 1 0.16500 119244.000000
5823 12761 1 0.16500 119244.000000
5823 15913 1 0.16500 119244.000000
5824 13089 1 0.16500 119244.000000
5824 15014 1 0.16500 119244.000000
5825 12762 1 0.16500 119244.000000
5825 15014 1 0.16500 119244.000000
5826 12762 1 0.16500 119244.000000
5826 14983 1 0.16500 119244.000000
5827 12762 1 0.16500 119244.000000
5827 13706 1 0.16500 119244.000000
5828 13982 1 0.16500 119244.000000
5828 14027 1 0.16500 119244.000000
5829 14027 1 0.16500 119244.000000
5829 21705 1 0.16500 119244.000000
5830 12987 1 0.16500 119244.000000
5830 16273 1 0.16500 119244.000000
5831 12763 1 0.16500 119244.000000
5831 14851 1 0.16500 119244.000000
5832 14971 1 0.16500 119244.000000
5832 21717 1 0.16500 119244.000000
5833 21717 1 0.16500 119244.000000
5833 23553 1 0.16500 119244.000000
5834 16707 1 0.16500 119244.000000
5834 21717 1 0.16500 119244.000000
5835 12764 1 0.16500 119244.000000
5835 13833 1 0.16500 119244.000000
5836 12764 1 0.16500 119244.000000
5836 14392 1 0.16500 119244.000000
5837 14149 1 0.16500 119244.000000
5837 14392 1 0.16500 119244.000000
5838 14034 1 0.16500 119244.000000
5838 14392 1 0.16500 119244.000000
5839 16006 1 0.16500 119244.000000
5839 21729 1 0.16500 119244.000000
5840 16006 1 0.16500 119244.000000
5840 23952 1 0.16500 119244.000000
5841 16006 1 0.16500 119244.000000
5841 24564 1 0.16500 119244.000000
5842 15876 1 0.16500 119244.000000
5842 16006 1 0.16500 119244.000000
5843 12765 1 0.16500 119244.000000
5843 14730 1 0.16500 119244.000000
5844 12723 1 0.16500 119244.000000
5844 16040 1 0.16500 119244.000000
5845 12766 1 0.16500 119244.000000
5845 16735 1 0.16500 119244.000000
5846 12766 1 0.16500 119244.000000
5846 16427 1 0.16500 119244.000000
5847 12767 1 0.16500 119244.000000
5847 13605 1 0.16500 119244.000000
5848 12767 1 0.16500 119244.000000
5848 17085 1 0.16500 119244.000000
5849 12767 1 0.16500 119244.000000
5849 24027 1 0.16500 119244.000000
5850 12768 1 0.16500 119244.000000
5850 15628 1 0.16500 119244.000000
5851 12768 1 0.16500 119244.000000
5851 13994 1 0.16500 119244.000000
5852 12768 1 0.16500 119244.000000
5852 14649 1 0.16500 119244.000000
5853 12769 1 0.16500 119244.000000
5853 15816 1 0.16500 119244.000000
5854 12770 1 0.16500 119244.000000
5854 13665 1 0.16500 119244.000000
5855 12770 1 0.16500 119244.000000
5855 13668 1 0.16500 119244.000000
5856 12770 1 0.16500 119244.000000
5856 24219 1 0.16500 119244.000000
5857 12770 1 0.16500 119244.000000
5857 15397 1 0.16500 119244.000000
5858 12512 1 0.16500 119244.000000
5858 12771 1 0.16500 119244.000000
5859 12771 1 0.16500 119244.000000
5859 13195 1 0.16500 119244.000000
5860 15253 1 0.16500 119244.000000
5860 21741 1 0.16500 119244.000000
5861 14860 1 0.16500 119244.000000
5861 15253 1 0.16500 119244.000000
5862 12772 1 0.16500 119244.000000
5862 15546 1 0.16500 119244.000000
5863 14006 1 0.16500 119244.000000
5863 14801 1 0.16500 119244.000000
5864 12772 1 0.16500 119244.000000
5864 14801 1 0.16500 119244.000000
5865 12773 1 0.16500 119244.000000
5865 15060 1 0.16500 119244.000000
5866 12773 1 0.16500 119244.000000
5866 22485 1 0.16500 119244.000000
5867 12773 1 0.16500 119244.000000
5867 15712 1 0.16500 119244.000000
5868 12774 1 0.16500 119244.000000
5868 14250 1 0.16500 119244.000000
5869 12774 1 0.16500 119244.000000
5869 15981 1 0.16500 119244.000000
5870 12775 1 0.16500 119244.000000
5870 14913 1 0.16500 119244.000000
5871 12775 1 0.16500 119244.000000
5871 13501 1 0.16500 119244.000000
5872 12775 1 0.16500 119244.000000
5872 15408 1 0.16500 119244.000000
5873 12776 1 0.16500 119244.000000
5873 12906 1 0.16500 119244.000000
5874 12776 1 0.16500 119244.000000
5874 14888 1 0.16500 119244.000000
5875 12776 1 0.16500 119244.000000
5875 13355 1 0.16500 119244.000000
5876 12777 1 0.16500 119244.000000
5876 13193 1 0.16500 119244.000000
5877 12777 1 0.16500 119244.000000
5877 13622 1 0.16500 119244.000000
5878 12777 1 0.16500 119244.000000
5878 13132 1 0.16500 119244.000000
5879 11451 1 0.16500 119244.000000
5879 12777 1 0.16500 119244.000000
5880 12778 1 0.16500 119244.000000
5880 13586 1 0.16500 119244.000000
5881 12778 1 0.16500 119244.000000
5881 13472 1 0.16500 119244.000000
5882 12778 1 0.16500 119244.000000
5882 13557 1 0.16500 119244.000000
5883 12778 1 0.16500 119244.000000
5883 15177 1 0.16500 119244.000000
5884 12779 1 0.16500 119244.000000
5884 14696 1 0.16500 119244.000000
5885 12779 1 0.16500 119244.000000
5885 13223 1 0.16500 119244.000000
5886 12779 1 0.16500 119244.000000
5886 15626 1 0.16500 119244.000000
5887 12780 1 0.16500 119244.000000
5887 16210 1 0.16500 119244.000000
5888 12780 1 0.16500 119244.000000
5888 15128 1 0.16500 119244.000000
5889 12781 1 0.16500 119244.000000
5889 13228 1 0.16500 119244.000000
5890 12781 1 0.16500 119244.000000
5890 13974 1 0.16500 119244.000000
5891 12781 1 0.16500 119244.000000
5891 14781 1 0.16500 119244.000000
5892 13196 1 0.16500 119244.000000
5892 21753 1 0.16500 119244.000000
5893 12245 1 0.16500 119244.000000
5893 21753 1 0.16500 119244.000000
5894 14626 1 0.16500 119244.000000
5894 21753 1 0.16500 119244.000000
5895 12782 1 0.16500 119244.000000
5895 14238 1 0.16500 119244.000000
5896 12782 1 0.16500 119244.000000
5896 15272 1 0.16500 119244.000000
5897 12782 1 0.16500 119244.000000
5897 14380 1 0.16500 119244.000000
5898 12783 1 0.16500 119244.000000
5898 15756 1 0.16500 119244.000000
5899 12783 1 0.16500 119244.000000
5899 15279 1 0.16500 119244.000000
5900 12783 1 0.16500 119244.000000
5900 14598 1 0.16500 119244.000000
5901 12784 1 0.16500 119244.000000
5901 14047 1 0.16500 119244.000000
5902 12784 1 0.16500 119244.000000
5902 12993 1 0.16500 119244.000000
5903 12784 1 0.16500 119244.000000
5903 13507 1 0.16500 119244.000000
5904 12785 1 0.16500 119244.000000
5904 13246 1 0.16500 119244.000000
5905 12785 1 0.16500 119244.000000
5905 14416 1 0.16500 119244.000000
5906 12785 1 0.16500 119244.000000
5906 15829 1 0.16500 119244.000000
5907 12785 1 0.16500 119244.000000
5907 13366 1 0.16500 119244.000000
5908 12786 1 0.16500 119244.000000
5908 15282 1 0.16500 119244.000000
5909 11974 1 0.16500 119244.000000
5909 12786 1 0.16500 119244.000000
5910 12786 1 0.16500 119244.000000
5910 13036 1 0.16500 119244.000000
5911 12787 1 0.16500 119244.000000
5911 14115 1 0.16500 119244.000000
5912 12787 1 0.16500 119244.000000
5912 13297 1 0.16500 119244.000000
5913 12787 1 0.16500 119244.000000
5913 14818 1 0.16500 119244.000000
5914 12788 1 0.16500 119244.000000
5914 14810 1 0.16500 119244.000000
5915 12788 1 0.16500 119244.000000
5915 14911 1 0.16500 119244.000000
5916 12788 1 0.16500 119244.000000
5916 13062 1 0.16500 119244.000000
5917 12789 1 0.16500 119244.000000
5917 13076 1 0.16500 119244.000000
5918 12789 1 0.16500 119244.000000
5918 13450 1 0.16500 119244.000000
5919 15965 1 0.16500 119244.000000
5919 16287 1 0.16500 119244.000000
5920 11409 1 0.16500 119244.000000
5920 12790 1 0.16500 119244.000000
5921 12790 1 0.16500 119244.000000
5921 15014 1 0.16500 119244.000000
5922 12790 1 0.16500 119244.000000
5922 13117 1 0.16500 119244.000000
5923 12791 1 0.16500 119244.000000
5923 15616 1 0.16500 119244.000000
5924 12791 1 0.16500 119244.000000
5924 15389 1 0.16500 119244.000000
5925 12791 1 0.16500 119244.000000
5925 12993 1 0.16500 119244.000000
5926 12792 1 0.16500 119244.000000
5926 14013 1 0.16500 119244.000000
5927 12060 1 0.16500 119244.000000
5927 13269 1 0.16500 119244.000000
5928 12793 1 0.16500 119244.000000
5928 15761 1 0.16500 119244.000000
5929 12793 1 0.16500 119244.000000
5929 14736 1 0.16500 119244.000000
5930 12794 1 0.16500 119244.000000
5930 13577 1 0.16500 119244.000000
5931 12794 1 0.16500 119244.000000
5931 16013 1 0.16500 119244.000000
5932 12794 1 0.16500 119244.000000
5932 13854 1 0.16500 119244.000000
5933 12794 1 0.16500 119244.000000
5933 13944 1 0.16500 119244.000000
5934 12795 1 0.16500 119244.000000
5934 13470 1 0.16500 119244.000000
5935 12796 1 0.16500 119244.000000
5935 14413 1 0.16500 119244.000000
5936 12796 1 0.16500 119244.000000
5936 14002 1 0.16500 119244.000000
5937 12797 1 0.16500 119244.000000
5937 13756 1 0.16500 119244.000000
5938 12797 1 0.16500 119244.000000
5938 13246 1 0.16500 119244.000000
5939 12798 1 0.16500 119244.000000
5939 14219 1 0.16500 119244.000000
5940 12798 1 0.16500 119244.000000
5940 13288 1 0.16500 119244.000000
5941 12798 1 0.16500 119244.000000
5941 14517 1 0.16500 119244.000000
5942 12798 1 0.16500 119244.000000
5942 14063 1 0.16500 119244.000000
5943 15494 1 0.16500 119244.000000
5943 15874 1 0.16500 119244.000000
5944 13760 1 0.16500 119244.000000
5944 15494 1 0.16500 119244.000000
5945 12799 1 0.16500 119244.000000
5945 15494 1 0.16500 119244.000000
5946 12800 1 0.16500 119244.000000
5946 14845 1 0.16500 119244.000000
5947 12800 1 0.16500 119244.000000
5947 14844 1 0.16500 119244.000000
5948 12800 1 0.16500 119244.000000
5948 12994 1 0.16500 119244.000000
5949 12801 1 0.16500 119244.000000
5949 16045 1 0.16500 119244.000000
5950 12801 1 0.16500 119244.000000
5950 13619 1 0.16500 119244.000000
5951 12801 1 0.16500 119244.000000
5951 12927 1 0.16500 119244.000000
5952 12801 1 0.16500 119244.000000
5952 13269 1 0.16500 119244.000000
5953 12802 1 0.16500 119244.000000
5953 13695 1 0.16500 119244.000000
5954 12802 1 0.16500 119244.000000
5954 15173 1 0.16500 119244.000000
5955 12570 1 0.16500 119244.000000
5955 12802 1 0.16500 119244.000000
5956 12802 1 0.16500 119244.000000
5956 15785 1 0.16500 119244.000000
5957 12803 1 0.16500 119244.000000
5957 13938 1 0.16500 119244.000000
5958 12803 1 0.16500 119244.000000
5958 13485 1 0.16500 119244.000000
5959 12803 1 0.16500 119244.000000
5959 13250 1 0.16500 119244.000000
5960 12803 1 0.16500 119244.000000
5960 15016 1 0.16500 119244.000000
5961 12804 1 0.16500 119244.000000
5961 22557 1 0.16500 119244.000000
5962 12804 1 0.16500 119244.000000
5962 13420 1 0.16500 119244.000000
5963 14795 1 0.16500 119244.000000
5963 23733 1 0.16500 119244.000000
5964 13114 1 0.16500 119244.000000
5964 21765 1 0.16500 119244.000000
5965 21765 1 0.16500 119244.000000
5965 23733 1 0.16500 119244.000000
5966 12805 1 0.16500 119244.000000
5966 15152 1 0.16500 119244.000000
5967 12805 1 0.16500 119244.000000
5967 14953 1 0.16500 119244.000000
5968 12806 1 0.16500 119244.000000
5968 13711 1 0.16500 119244.000000
5969 12806 1 0.16500 119244.000000
5969 21105 1 0.16500 119244.000000
5970 12807 1 0.16500 119244.000000
5970 13985 1 0.16500 119244.000000
5971 12807 1 0.16500 119244.000000
5971 13973 1 0.16500 119244.000000
5972 12807 1 0.16500 119244.000000
5972 13293 1 0.16500 119244.000000
5973 13168 1 0.16500 119244.000000
5973 13985 1 0.16500 119244.000000
5974 21777 1 0.16500 119244.000000
5974 24609 1 0.16500 119244.000000
5975 21777 1 0.16500 119244.000000
5975 22461 1 0.16500 119244.000000
5976 12808 1 0.16500 119244.000000
5976 13420 1 0.16500 119244.000000
5977 12808 1 0.16500 119244.000000
5977 14973 1 0.16500 119244.000000
5978 13261 1 0.16500 119244.000000
5978 13963 1 0.16500 119244.000000
5979 21789 1 0.16500 119244.000000
5979 24006 1 0.16500 119244.000000
5980 13261 1 0.16500 119244.000000
5980 21789 1 0.16500 119244.000000
5981 13261 1 0.16500 119244.000000
5981 23997 1 0.16500 119244.000000
5982 12809 1 0.16500 119244.000000
5982 13747 1 0.16500 119244.000000
5983 12809 1 0.16500 119244.000000
5983 12978 1 0.16500 119244.000000
5984 12810 1 0.16500 119244.000000
5984 15224 1 0.16500 119244.000000
5985 12810 1 0.16500 119244.000000
5985 13874 1 0.16500 119244.000000
5986 12810 1 0.16500 119244.000000
5986 13063 1 0.16500 119244.000000
5987 12811 1 0.16500 119244.000000
5987 16031 1 0.16500 119244.000000
5988 12811 1 0.16500 119244.000000
5988 15219 1 0.16500 119244.000000
5989 12812 1 0.16500 119244.000000
5989 15640 1 0.16500 119244.000000
5990 12812 1 0.16500 119244.000000
5990 14368 1 0.16500 119244.000000
5991 21801 1 0.16500 119244.000000
5991 24204 1 0.16500 119244.000000
5992 12956 1 0.16500 119244.000000
5992 21801 1 0.16500 119244.000000
5993 12813 1 0.16500 119244.000000
5993 14930 1 0.16500 119244.000000
5994 12813 1 0.16500 119244.000000
5994 13302 1 0.16500 119244.000000
5995 12813 1 0.16500 119244.000000
5995 15967 1 0.16500 119244.000000
5996 12813 1 0.16500 119244.000000
5996 14610 1 0.16500 119244.000000
5997 21813 1 0.16500 119244.000000
5997 24804 1 0.16500 119244.000000
5998 21813 1 0.16500 119244.000000
5998 23109 1 0.16500 119244.000000
5999 12814 1 0.16500 119244.000000
5999 15475 1 0.16500 119244.000000
6000 21825 1 0.16500 119244.000000
6000 24102 1 0.16500 119244.000000
6001 16117 1 0.16500 119244.000000
6001 21825 1 0.16500 119244.000000
6002 12815 1 0.16500 119244.000000
6002 15034 1 0.16500 119244.000000
6003 12815 1 0.16500 119244.000000
6003 13510 1 0.16500 119244.000000
6004 12815 1 0.16500 119244.000000
6004 12844 1 0.16500 119244.000000
6005 16026 1 0.16500 119244.000000
6005 21837 1 0.16500 119244.000000
6006 15053 1 0.16500 119244.000000
6006 21837 1 0.16500 119244.000000
6007 12816 1 0.16500 119244.000000
6007 15179 1 0.16500 119244.000000
6008 12816 1 0.16500 119244.000000
6008 12907 1 0.16500 119244.000000
6009 12816 1 0.16500 119244.000000
6009 15162 1 0.16500 119244.000000
6010 12816 1 0.16500 119244.000000
6010 13480 1 0.16500 119244.000000
6011 12817 1 0.16500 119244.000000
6011 15200 1 0.16500 119244.000000
6012 12817 1 0.16500 119244.000000
6012 15607 1 0.16500 119244.000000
6013 12818 1 0.16500 119244.000000
6013 12885 1 0.16500 119244.000000
6014 12818 1 0.16500 119244.000000
6014 23961 1 0.16500 119244.000000
6015 12818 1 0.16500 119244.000000
6015 14816 1 0.16500 119244.000000
6016 12819 1 0.16500 119244.000000
6016 16118 1 0.16500 119244.000000
6017 12819 1 0.16500 119244.000000
6017 14372 1 0.16500 119244.000000
6018 12819 1 0.16500 119244.000000
6018 14667 1 0.16500 119244.000000
6019 12819 1 0.16500 119244.000000
6019 15951 1 0.16500 119244.000000
6020 11497 1 0.16500 119244.000000
6020 13108 1 0.16500 119244.000000
6021 11497 1 0.16500 119244.000000
6021 15906 1 0.16500 119244.000000
6022 12821 1 0.16500 119244.000000
6022 15097 1 0.16500 119244.000000
6023 12821 1 0.16500 119244.000000
6023 13451 1 0.16500 119244.000000
6024 12821 1 0.16500 119244.000000
6024 13467 1 0.16500 119244.000000
6025 12821 1 0.16500 119244.000000
6025 14521 1 0.16500 119244.000000
6026 16413 1 0.16500 119244.000000
6026 21849 1 0.16500 119244.000000
6027 14934 1 0.16500 119244.000000
6027 21849 1 0.16500 119244.000000
6028 12822 1 0.16500 119244.000000
6028 13443 1 0.16500 119244.000000
6029 12822 1 0.16500 119244.000000
6029 14907 1 0.16500 119244.000000
6030 12822 1 0.16500 119244.000000
6030 15757 1 0.16500 119244.000000
6031 15736 1 0.16500 119244.000000
6031 16637 1 0.16500 119244.000000
6032 15736 1 0.16500 119244.000000
6032 21861 1 0.16500 119244.000000
6033 12823 1 0.16500 119244.000000
6033 13391 1 0.16500 119244.000000
6034 12823 1 0.16500 119244.000000
6034 14184 1 0.16500 119244.000000
6035 12824 1 0.16500 119244.000000
6035 13313 1 0.16500 119244.000000
6036 12824 1 0.16500 119244.000000
6036 16179 1 0.16500 119244.000000
6037 12824 1 0.16500 119244.000000
6037 13578 1 0.16500 119244.000000
6038 21873 1 0.16500 119244.000000
6038 21981 1 0.16500 119244.000000
6039 12825 1 0.16500 119244.000000
6039 13713 1 0.16500 119244.000000
6040 12825 1 0.16500 119244.000000
6040 15823 1 0.16500 119244.000000
6041 12825 1 0.16500 119244.000000
6041 13363 1 0.16500 119244.000000
6042 12825 1 0.16500 119244.000000
6042 15328 1 0.16500 119244.000000
6043 12826 1 0.16500 119244.000000
6043 15923 1 0.16500 119244.000000
6044 12826 1 0.16500 119244.000000
6044 14140 1 0.16500 119244.000000
6045 12826 1 0.16500 119244.000000
6045 15413 1 0.16500 119244.000000
6046 12826 1 0.16500 119244.000000
6046 15862 1 0.16500 119244.000000
6047 12827 1 0.16500 119244.000000
6047 15512 1 0.16500 119244.000000
6048 12827 1 0.16500 119244.000000
6048 13902 1 0.16500 119244.000000
6049 12827 1 0.16500 119244.000000
6049 15148 1 0.16500 119244.000000
6050 12828 1 0.16500 119244.000000
6050 16125 1 0.16500 119244.000000
6051 13443 1 0.16500 119244.000000
6051 16301 1 0.16500 119244.000000
6052 12829 1 0.16500 119244.000000
6052 14598 1 0.16500 119244.000000
6053 12829 1 0.16500 119244.000000
6053 15252 1 0.16500 119244.000000
6054 12829 1 0.16500 119244.000000
6054 14462 1 0.16500 119244.000000
6055 12830 1 0.16500 119244.000000
6055 14630 1 0.16500 119244.000000
6056 12830 1 0.16500 119244.000000
6056 22977 1 0.16500 119244.000000
6057 12830 1 0.16500 119244.000000
6057 16763 1 0.16500 119244.000000
6058 12831 1 0.16500 119244.000000
6058 14495 1 0.16500 119244.000000
6059 12831 1 0.16500 119244.000000
6059 15811 1 0.16500 119244.000000
6060 12831 1 0.16500 119244.000000
6060 15645 1 0.16500 119244.000000
6061 12832 1 0.16500 119244.000000
6061 16065 1 0.16500 119244.000000
6062 12833 1 0.16500 119244.000000
6062 12977 1 0.16500 119244.000000
6063 12833 1 0.16500 119244.000000
6063 14487 1 0.16500 119244.000000
6064 12833 1 0.16500 119244.000000
6064 15539 1 0.16500 119244.000000
6065 12834 1 0.16500 119244.000000
6065 13180 1 0.16500 119244.000000
6066 12834 1 0.16500 119244.000000
6066 16120 1 0.16500 119244.000000
6067 12834 1 0.16500 119244.000000
6067 15184 1 0.16500 119244.000000
6068 12835 1 0.16500 119244.000000
6068 15530 1 0.16500 119244.000000
6069 12835 1 0.16500 119244.000000
6069 13312 1 0.16500 119244.000000
6070 12836 1 0.16500 119244.000000
6070 15318 1 0.16500 119244.000000
6071 12836 1 0.16500 119244.000000
6071 14780 1 0.16500 119244.000000
6072 12836 1 0.16500 119244.000000
6072 15998 1 0.16500 119244.000000
6073 12836 1 0.16500 119244.000000
6073 23697 1 0.16500 119244.000000
6074 12837 1 0.16500 119244.000000
6074 14012 1 0.16500 119244.000000
6075 12837 1 0.16500 119244.000000
6075 14006 1 0.16500 119244.000000
6076 12838 1 0.16500 119244.000000
6076 16186 1 0.16500 119244.000000
6077 12838 1 0.16500 119244.000000
6077 14524 1 0.16500 119244.000000
6078 12838 1 0.16500 119244.000000
6078 15668 1 0.16500 119244.000000
6079 13709 1 0.16500 119244.000000
6079 16329 1 0.16500 119244.000000
6080 15111 1 0.16500 119244.000000
6080 16329 1 0.16500 119244.000000
6081 12839 1 0.16500 119244.000000
6081 14471 1 0.16500 119244.000000
6082 12839 1 0.16500 119244.000000
6082 14882 1 0.16500 119244.000000
6083 12839 1 0.16500 119244.000000
6083 14170 1 0.16500 119244.000000
6084 12840 1 0.16500 119244.000000
6084 13484 1 0.16500 119244.000000
6085 12840 1 0.16500 119244.000000
6085 14177 1 0.16500 119244.000000
6086 12840 1 0.16500 119244.000000
6086 13215 1 0.16500 119244.000000
6087 12840 1 0.16500 119244.000000
6087 14493 1 0.16500 119244.000000
6088 16181 1 0.16500 119244.000000
6088 21885 1 0.16500 119244.000000
6089 21885 1 0.16500 119244.000000
6089 24192 1 0.16500 119244.000000
6090 12841 1 0.16500 119244.000000
6090 15006 1 0.16500 119244.000000
6091 12841 1 0.16500 119244.000000
6091 15667 1 0.16500 119244.000000
6092 12841 1 0.16500 119244.000000
6092 13914 1 0.16500 119244.000000
6093 12841 1 0.16500 119244.000000
6093 13656 1 0.16500 119244.000000
6094 12842 1 0.16500 119244.000000
6094 14812 1 0.16500 119244.000000
6095 12842 1 0.16500 119244.000000
6095 15895 1 0.16500 119244.000000
6096 12842 1 0.16500 119244.000000
6096 13143 1 0.16500 119244.000000
6097 12843 1 0.16500 119244.000000
6097 13186 1 0.16500 119244.000000
6098 12843 1 0.16500 119244.000000
6098 13241 1 0.16500 119244.000000
6099 14168 1 0.16500 119244.000000
6099 21909 1 0.16500 119244.000000
6100 21909 1 0.16500 119244.000000
6100 24531 1 0.16500 119244.000000
6101 13829 1 0.16500 119244.000000
6101 21909 1 0.16500 119244.000000
6102 12844 1 0.16500 119244.000000
6102 14585 1 0.16500 119244.000000
6103 12844 1 0.16500 119244.000000
6103 16123 1 0.16500 119244.000000
6104 12845 1 0.16500 119244.000000
6104 15616 1 0.16500 119244.000000
6105 12845 1 0.16500 119244.000000
6105 13297 1 0.16500 119244.000000
6106 12845 1 0.16500 119244.000000
6106 14017 1 0.16500 119244.000000
6107 12845 1 0.16500 119244.000000
6107 14321 1 0.16500 119244.000000
6108 15519 1 0.16500 119244.000000
6108 21921 1 0.16500 119244.000000
6109 15498 1 0.16500 119244.000000
6109 21921 1 0.16500 119244.000000
6110 14993 1 0.16500 119244.000000
6110 21921 1 0.16500 119244.000000
6111 12846 1 0.16500 119244.000000
6111 14225 1 0.16500 119244.000000
6112 14628 1 0.16500 119244.000000
6112 14897 1 0.16500 119244.000000
6113 12846 1 0.16500 119244.000000
6113 14628 1 0.16500 119244.000000
6114 15609 1 0.16500 119244.000000
6114 15661 1 0.16500 119244.000000
6115 12847 1 0.16500 119244.000000
6115 15237 1 0.16500 119244.000000
6116 20817 1 0.16500 119244.000000
6116 21933 1 0.16500 119244.000000
6117 15886 1 0.16500 119244.000000
6117 21933 1 0.16500 119244.000000
6118 12848 1 0.16500 119244.000000
6118 15721 1 0.16500 119244.000000
6119 12849 1 0.16500 119244.000000
6119 15439 1 0.16500 119244.000000
6120 12849 1 0.16500 119244.000000
6120 12878 1 0.16500 119244.000000
6121 12849 1 0.16500 119244.000000
6121 13506 1 0.16500 119244.000000
6122 15497 1 0.16500 119244.000000
6122 21945 1 0.16500 119244.000000
6123 13551 1 0.16500 119244.000000
6123 21945 1 0.16500 119244.000000
6124 12850 1 0.16500 119244.000000
6124 14294 1 0.16500 119244.000000
6125 12850 1 0.16500 119244.000000
6125 15524 1 0.16500 119244.000000
6126 12850 1 0.16500 119244.000000
6126 17617 1 0.16500 119244.000000
6127 12850 1 0.16500 119244.000000
6127 13019 1 0.16500 119244.000000
6128 12851 1 0.16500 119244.000000
6128 13226 1 0.16500 119244.000000
6129 11937 1 0.16500 119244.000000
6129 12852 1 0.16500 119244.000000
6130 12852 1 0.16500 119244.000000
6130 17953 1 0.16500 119244.000000
6131 12852 1 0.16500 119244.000000
6131 13940 1 0.16500 119244.000000
6132 12853 1 0.16500 119244.000000
6132 12854 1 0.16500 119244.000000
6133 12853 1 0.16500 119244.000000
6133 13034 1 0.16500 119244.000000
6134 12853 1 0.16500 119244.000000
6134 15091 1 0.16500 119244.000000
6135 13255 1 0.16500 119244.000000
6135 15013 1 0.16500 119244.000000
6136 12854 1 0.16500 119244.000000
6136 12881 1 0.16500 119244.000000
6137 12855 1 0.16500 119244.000000
6137 14561 1 0.16500 119244.000000
6138 12855 1 0.16500 119244.000000
6138 13321 1 0.16500 119244.000000
6139 12855 1 0.16500 119244.000000
6139 13587 1 0.16500 119244.000000
6140 12855 1 0.16500 119244.000000
6140 15615 1 0.16500 119244.000000
6141 12856 1 0.16500 119244.000000
6141 12997 1 0.16500 119244.000000
6142 12856 1 0.16500 119244.000000
6142 15538 1 0.16500 119244.000000
6143 12856 1 0.16500 119244.000000
6143 13865 1 0.16500 119244.000000
6144 12857 1 0.16500 119244.000000
6144 24456 1 0.16500 119244.000000
6145 13794 1 0.16500 119244.000000
6145 14326 1 0.16500 119244.000000
6146 12858 1 0.16500 119244.000000
6146 13794 1 0.16500 119244.000000
6147 13794 1 0.16500 119244.000000
6147 15377 1 0.16500 119244.000000
6148 16651 1 0.16500 119244.000000
6148 21957 1 0.16500 119244.000000
6149 21957 1 0.16500 119244.000000
6149 24237 1 0.16500 119244.000000
6150 12859 1 0.16500 119244.000000
6150 24522 1 0.16500 119244.000000
6151 12859 1 0.16500 119244.000000
6151 24621 1 0.16500 119244.000000
6152 12859 1 0.16500 119244.000000
6152 24267 1 0.16500 119244.000000
6153 12859 1 0.16500 119244.000000
6153 15117 1 0.16500 119244.000000
6154 12860 1 0.16500 119244.000000
6154 13830 1 0.16500 119244.000000
6155 12861 1 0.16500 119244.000000
6155 13823 1 0.16500 119244.000000
6156 12861 1 0.16500 119244.000000
6156 13976 1 0.16500 119244.000000
6157 12861 1 0.16500 119244.000000
6157 13662 1 0.16500 119244.000000
6158 12862 1 0.16500 119244.000000
6158 15468 1 0.16500 119244.000000
6159 12862 1 0.16500 119244.000000
6159 13636 1 0.16500 119244.000000
6160 12863 1 0.16500 119244.000000
6160 14009 1 0.16500 119244.000000
6161 12457 1 0.16500 119244.000000
6161 13326 1 0.16500 119244.000000
6162 13326 1 0.16500 119244.000000
6162 15346 1 0.16500 119244.000000
6163 13281 1 0.16500 119244.000000
6163 21969 1 0.16500 119244.000000
6164 13393 1 0.16500 119244.000000
6164 21969 1 0.16500 119244.000000
6165 12864 1 0.16500 119244.000000
6165 14052 1 0.16500 119244.000000
6166 12864 1 0.16500 119244.000000
6166 13610 1 0.16500 119244.000000
6167 13943 1 0.16500 119244.000000
6167 15946 1 0.16500 119244.000000
6168 12865 1 0.16500 119244.000000
6168 15490 1 0.16500 119244.000000
6169 12865 1 0.16500 119244.000000
6169 15121 1 0.16500 119244.000000
6170 12865 1 0.16500 119244.000000
6170 13943 1 0.16500 119244.000000
6171 12866 1 0.16500 119244.000000
6171 15056 1 0.16500 119244.000000
6172 12866 1 0.16500 119244.000000
6172 23940 1 0.16500 119244.000000
6173 21981 1 0.16500 119244.000000
6173 23697 1 0.16500 119244.000000
6174 14062 1 0.16500 119244.000000
6174 21981 1 0.16500 119244.000000
6175 15517 1 0.16500 119244.000000
6175 16213 1 0.16500 119244.000000
6176 12867 1 0.16500 119244.000000
6176 13276 1 0.16500 119244.000000
6177 12867 1 0.16500 119244.000000
6177 15873 1 0.16500 119244.000000
6178 11668 1 0.16500 119244.000000
6178 16213 1 0.16500 119244.000000
6179 12868 1 0.16500 119244.000000
6179 14592 1 0.16500 119244.000000
6180 12868 1 0.16500 119244.000000
6180 12897 1 0.16500 119244.000000
6181 12869 1 0.16500 119244.000000
6181 15314 1 0.16500 119244.000000
6182 12869 1 0.16500 119244.000000
6182 15910 1 0.16500 119244.000000
6183 12869 1 0.16500 119244.000000
6183 13867 1 0.16500 119244.000000
6184 12869 1 0.16500 119244.000000
6184 14020 1 0.16500 119244.000000
6185 12870 1 0.16500 119244.000000
6185 14117 1 0.16500 119244.000000
6186 12870 1 0.16500 119244.000000
6186 16623 1 0.16500 119244.000000
6187 12870 1 0.16500 119244.000000
6187 24634 1 0.16500 119244.000000
6188 12871 1 0.16500 119244.000000
6188 13101 1 0.16500 119244.000000
6189 12871 1 0.16500 119244.000000
6189 15951 1 0.16500 119244.000000
6190 12871 1 0.16500 119244.000000
6190 13963 1 0.16500 119244.000000
6191 12871 1 0.16500 119244.000000
6191 13340 1 0.16500 119244.000000
6192 14144 1 0.16500 119244.000000
6192 21993 1 0.16500 119244.000000
6193 12872 1 0.16500 119244.000000
6193 14194 1 0.16500 119244.000000
6194 12872 1 0.16500 119244.000000
6194 13408 1 0.16500 119244.000000
6195 12872 1 0.16500 119244.000000
6195 14539 1 0.16500 119244.000000
6196 12872 1 0.16500 119244.000000
6196 13918 1 0.16500 119244.000000
6197 15519 1 0.16500 119244.000000
6197 22005 1 0.16500 119244.000000
6198 14735 1 0.16500 119244.000000
6198 22005 1 0.16500 119244.000000
6199 14099 1 0.16500 119244.000000
6199 17071 1 0.16500 119244.000000
6200 12873 1 0.16500 119244.000000
6200 15489 1 0.16500 119244.000000
6201 12873 1 0.16500 119244.000000
6201 14286 1 0.16500 119244.000000
6202 12873 1 0.16500 119244.000000
6202 13124 1 0.16500 119244.000000
6203 12874 1 0.16500 119244.000000
6203 13251 1 0.16500 119244.000000
6204 12874 1 0.16500 119244.000000
6204 13205 1 0.16500 119244.000000
6205 12875 1 0.16500 119244.000000
6205 13977 1 0.16500 119244.000000
6206 12875 1 0.16500 119244.000000
6206 15700 1 0.16500 119244.000000
6207 12875 1 0.16500 119244.000000
6207 14531 1 0.16500 119244.000000
6208 12876 1 0.16500 119244.000000
6208 14120 1 0.16500 119244.000000
6209 12876 1 0.16500 119244.000000
6209 14112 1 0.16500 119244.000000
6210 12877 1 0.16500 119244.000000
6210 14569 1 0.16500 119244.000000
6211 12877 1 0.16500 119244.000000
6211 15574 1 0.16500 119244.000000
6212 12877 1 0.16500 119244.000000
6212 14199 1 0.16500 119244.000000
6213 12877 1 0.16500 119244.000000
6213 15938 1 0.16500 119244.000000
6214 12878 1 0.16500 119244.000000
6214 13090 1 0.16500 119244.000000
6215 12879 1 0.16500 119244.000000
6215 13429 1 0.16500 119244.000000
6216 12879 1 0.16500 119244.000000
6216 13043 1 0.16500 119244.000000
6217 12879 1 0.16500 119244.000000
6217 13694 1 0.16500 119244.000000
6218 12880 1 0.16500 119244.000000
6218 14810 1 0.16500 119244.000000
6219 12880 1 0.16500 119244.000000
6219 24108 1 0.16500 119244.000000
6220 12881 1 0.16500 119244.000000
6220 15282 1 0.16500 119244.000000
6221 12882 1 0.16500 119244.000000
6221 16094 1 0.16500 119244.000000
6222 12583 1 0.16500 119244.000000
6222 12882 1 0.16500 119244.000000
6223 12883 1 0.16500 119244.000000
6223 15340 1 0.16500 119244.000000
6224 12883 1 0.16500 119244.000000
6224 23253 1 0.16500 119244.000000
6225 12883 1 0.16500 119244.000000
6225 24408 1 0.16500 119244.000000
6226 12884 1 0.16500 119244.000000
6226 14408 1 0.16500 119244.000000
6227 12884 1 0.16500 119244.000000
6227 15753 1 0.16500 119244.000000
6228 12884 1 0.16500 119244.000000
6228 13824 1 0.16500 119244.000000
6229 14988 1 0.16500 119244.000000
6229 16343 1 0.16500 119244.000000
6230 16174 1 0.16500 119244.000000
6230 22017 1 0.16500 119244.000000
6231 13809 1 0.16500 119244.000000
6231 22017 1 0.16500 119244.000000
6232 22017 1 0.16500 119244.000000
6232 23841 1 0.16500 119244.000000
6233 20037 1 0.16500 119244.000000
6233 22029 1 0.16500 119244.000000
6234 12289 1 0.16500 119244.000000
6234 13723 1 0.16500 119244.000000
6235 12885 1 0.16500 119244.000000
6235 18037 1 0.16500 119244.000000
6236 12886 1 0.16500 119244.000000
6236 14026 1 0.16500 119244.000000
6237 12886 1 0.16500 119244.000000
6237 13264 1 0.16500 119244.000000
6238 12886 1 0.16500 119244.000000
6238 24081 1 0.16500 119244.000000
6239 12887 1 0.16500 119244.000000
6239 15608 1 0.16500 119244.000000
6240 12887 1 0.16500 119244.000000
6240 13652 1 0.16500 119244.000000
6241 12887 1 0.16500 119244.000000
6241 16069 1 0.16500 119244.000000
6242 12887 1 0.16500 119244.000000
6242 16126 1 0.16500 119244.000000
6243 12888 1 0.16500 119244.000000
6243 13560 1 0.16500 119244.000000
6244 12888 1 0.16500 119244.000000
6244 14863 1 0.16500 119244.000000
6245 12889 1 0.16500 119244.000000
6245 15875 1 0.16500 119244.000000
6246 12890 1 0.16500 119244.000000
6246 14782 1 0.16500 119244.000000
6247 12890 1 0.16500 119244.000000
6247 15523 1 0.16500 119244.000000
6248 12891 1 0.16500 119244.000000
6248 15314 1 0.16500 119244.000000
6249 12891 1 0.16500 119244.000000
6249 14176 1 0.16500 119244.000000
6250 12891 1 0.16500 119244.000000
6250 13015 1 0.16500 119244.000000
6251 12892 1 0.16500 119244.000000
6251 24694 1 0.16500 119244.000000
6252 12893 1 0.16500 119244.000000
6252 15615 1 0.16500 119244.000000
6253 12893 1 0.16500 119244.000000
6253 14094 1 0.16500 119244.000000
6254 12893 1 0.16500 119244.000000
6254 13956 1 0.16500 119244.000000
6255 12894 1 0.16500 119244.000000
6255 14119 1 0.16500 119244.000000
6256 14010 1 0.16500 119244.000000
6256 14664 1 0.16500 119244.000000
6257 12894 1 0.16500 119244.000000
6257 13155 1 0.16500 119244.000000
6258 12894 1 0.16500 119244.000000
6258 14010 1 0.16500 119244.000000
6259 12895 1 0.16500 119244.000000
6259 13934 1 0.16500 119244.000000
6260 12895 1 0.16500 119244.000000
6260 15926 1 0.16500 119244.000000
6261 12895 1 0.16500 119244.000000
6261 15357 1 0.16500 119244.000000
6262 22041 1 0.16500 119244.000000
6262 24564 1 0.16500 119244.000000
6263 22041 1 0.16500 119244.000000
6263 24189 1 0.16500 119244.000000
6264 13894 1 0.16500 119244.000000
6264 22041 1 0.16500 119244.000000
6265 12896 1 0.16500 119244.000000
6265 13216 1 0.16500 119244.000000
6266 11308 1 0.16500 119244.000000
6266 15423 1 0.16500 119244.000000
6267 16357 1 0.16500 119244.000000
6267 24225 1 0.16500 119244.000000
6268 12898 1 0.16500 119244.000000
6268 16015 1 0.16500 119244.000000
6269 12898 1 0.16500 119244.000000
6269 15292 1 0.16500 119244.000000
6270 12898 1 0.16500 119244.000000
6270 14426 1 0.16500 119244.000000
6271 12898 1 0.16500 119244.000000
6271 15651 1 0.16500 119244.000000
6272 12899 1 0.16500 119244.000000
6272 15349 1 0.16500 119244.000000
6273 12899 1 0.16500 119244.000000
6273 15180 1 0.16500 119244.000000
6274 12899 1 0.16500 119244.000000
6274 14351 1 0.16500 119244.000000
6275 13708 1 0.16500 119244.000000
6275 14351 1 0.16500 119244.000000
6276 13581 1 0.16500 119244.000000
6276 22053 1 0.16500 119244.000000
6277 13504 1 0.16500 119244.000000
6277 22053 1 0.16500 119244.000000
6278 12900 1 0.16500 119244.000000
6278 16062 1 0.16500 119244.000000
6279 12900 1 0.16500 119244.000000
6279 14607 1 0.16500 119244.000000
6280 12900 1 0.16500 119244.000000
6280 15860 1 0.16500 119244.000000
6281 12900 1 0.16500 119244.000000
6281 14772 1 0.16500 119244.000000
6282 12901 1 0.16500 119244.000000
6282 16122 1 0.16500 119244.000000
6283 12099 1 0.16500 119244.000000
6283 12902 1 0.16500 119244.000000
6284 12902 1 0.16500 119244.000000
6284 15746 1 0.16500 119244.000000
6285 12902 1 0.16500 119244.000000
6285 14789 1 0.16500 119244.000000
6286 12903 1 0.16500 119244.000000
6286 15437 1 0.16500 119244.000000
6287 12903 1 0.16500 119244.000000
6287 15611 1 0.16500 119244.000000
6288 12904 1 0.16500 119244.000000
6288 16005 1 0.16500 119244.000000
6289 12904 1 0.16500 119244.000000
6289 15722 1 0.16500 119244.000000
6290 12905 1 0.16500 119244.000000
6290 16014 1 0.16500 119244.000000
6291 12905 1 0.16500 119244.000000
6291 15763 1 0.16500 119244.000000
6292 12906 1 0.16500 119244.000000
6292 14241 1 0.16500 119244.000000
6293 12906 1 0.16500 119244.000000
6293 14739 1 0.16500 119244.000000
6294 12906 1 0.16500 119244.000000
6294 13703 1 0.16500 119244.000000
6295 12907 1 0.16500 119244.000000
6295 15496 1 0.16500 119244.000000
6296 12907 1 0.16500 119244.000000
6296 15448 1 0.16500 119244.000000
6297 12908 1 0.16500 119244.000000
6297 15486 1 0.16500 119244.000000
6298 12908 1 0.16500 119244.000000
6298 15563 1 0.16500 119244.000000
6299 12908 1 0.16500 119244.000000
6299 15093 1 0.16500 119244.000000
6300 12908 1 0.16500 119244.000000
6300 15185 1 0.16500 119244.000000
6301 12909 1 0.16500 119244.000000
6301 14175 1 0.16500 119244.000000
6302 12909 1 0.16500 119244.000000
6302 15833 1 0.16500 119244.000000
6303 12909 1 0.16500 119244.000000
6303 24624 1 0.16500 119244.000000
6304 12910 1 0.16500 119244.000000
6304 15762 1 0.16500 119244.000000
6305 12910 1 0.16500 119244.000000
6305 15714 1 0.16500 119244.000000
6306 12911 1 0.16500 119244.000000
6306 13916 1 0.16500 119244.000000
6307 12911 1 0.16500 119244.000000
6307 23955 1 0.16500 119244.000000
6308 12911 1 0.16500 119244.000000
6308 15948 1 0.16500 119244.000000
6309 14639 1 0.16500 119244.000000
6309 22065 1 0.16500 119244.000000
6310 22065 1 0.16500 119244.000000
6310 23505 1 0.16500 119244.000000
6311 12912 1 0.16500 119244.000000
6311 13495 1 0.16500 119244.000000
6312 12912 1 0.16500 119244.000000
6312 14058 1 0.16500 119244.000000
6313 12912 1 0.16500 119244.000000
6313 12932 1 0.16500 119244.000000
6314 16371 1 0.16500 119244.000000
6314 23979 1 0.16500 119244.000000
6315 15104 1 0.16500 119244.000000
6315 16371 1 0.16500 119244.000000
6316 12913 1 0.16500 119244.000000
6316 15722 1 0.16500 119244.000000
6317 12913 1 0.16500 119244.000000
6317 15526 1 0.16500 119244.000000
6318 12913 1 0.16500 119244.000000
6318 13631 1 0.16500 119244.000000
6319 12914 1 0.16500 119244.000000
6319 14623 1 0.16500 119244.000000
6320 12914 1 0.16500 119244.000000
6320 14269 1 0.16500 119244.000000
6321 12858 1 0.16500 119244.000000
6321 12914 1 0.16500 119244.000000
6322 12914 1 0.16500 119244.000000
6322 15998 1 0.16500 119244.000000
6323 12915 1 0.16500 119244.000000
6323 13422 1 0.16500 119244.000000
6324 12915 1 0.16500 119244.000000
6324 15006 1 0.16500 119244.000000
6325 12916 1 0.16500 119244.000000
6325 16057 1 0.16500 119244.000000
6326 12916 1 0.16500 119244.000000
6326 13757 1 0.16500 119244.000000
6327 12916 1 0.16500 119244.000000
6327 13337 1 0.16500 119244.000000
6328 12917 1 0.16500 119244.000000
6328 16061 1 0.16500 119244.000000
6329 12917 1 0.16500 119244.000000
6329 16124 1 0.16500 119244.000000
6330 12917 1 0.16500 119244.000000
6330 15472 1 0.16500 119244.000000
6331 12918 1 0.16500 119244.000000
6331 14331 1 0.16500 119244.000000
6332 12918 1 0.16500 119244.000000
6332 15961 1 0.16500 119244.000000
6333 12918 1 0.16500 119244.000000
6333 15018 1 0.16500 119244.000000
6334 12918 1 0.16500 119244.000000
6334 13662 1 0.16500 119244.000000
6335 22077 1 0.16500 119244.000000
6335 23817 1 0.16500 119244.000000
6336 12919 1 0.16500 119244.000000
6336 14051 1 0.16500 119244.000000
6337 14051 1 0.16500 119244.000000
6337 15538 1 0.16500 119244.000000
6338 12920 1 0.16500 119244.000000
6338 13406 1 0.16500 119244.000000
6339 12920 1 0.16500 119244.000000
6339 15856 1 0.16500 119244.000000
6340 12921 1 0.16500 119244.000000
6340 16204 1 0.16500 119244.000000
6341 12921 1 0.16500 119244.000000
6341 24591 1 0.16500 119244.000000
6342 12921 1 0.16500 119244.000000
6342 14947 1 0.16500 119244.000000
6343 12922 1 0.16500 119244.000000
6343 15264 1 0.16500 119244.000000
6344 15264 1 0.16500 119244.000000
6344 15347 1 0.16500 119244.000000
6345 12922 1 0.16500 119244.000000
6345 15883 1 0.16500 119244.000000
6346 12923 1 0.16500 119244.000000
6346 13223 1 0.16500 119244.000000
6347 12923 1 0.16500 119244.000000
6347 14994 1 0.16500 119244.000000
6348 12923 1 0.16500 119244.000000
6348 16130 1 0.16500 119244.000000
6349 12923 1 0.16500 119244.000000
6349 13079 1 0.16500 119244.000000
6350 16385 1 0.16500 119244.000000
6350 23745 1 0.16500 119244.000000
6351 16069 1 0.16500 119244.000000
6351 16385 1 0.16500 119244.000000
6352 12924 1 0.16500 119244.000000
6352 16021 1 0.16500 119244.000000
6353 12924 1 0.16500 119244.000000
6353 15839 1 0.16500 119244.000000
6354 12925 1 0.16500 119244.000000
6354 13083 1 0.16500 119244.000000
6355 12925 1 0.16500 119244.000000
6355 16195 1 0.16500 119244.000000
6356 12542 1 0.16500 119244.000000
6356 15328 1 0.16500 119244.000000
6357 12926 1 0.16500 119244.000000
6357 13934 1 0.16500 119244.000000
6358 12927 1 0.16500 119244.000000
6358 13622 1 0.16500 119244.000000
6359 12927 1 0.16500 119244.000000
6359 14853 1 0.16500 119244.000000
6360 12928 1 0.16500 119244.000000
6360 15347 1 0.16500 119244.000000
6361 13679 1 0.16500 119244.000000
6361 15157 1 0.16500 119244.000000
6362 12928 1 0.16500 119244.000000
6362 14644 1 0.16500 119244.000000
6363 12928 1 0.16500 119244.000000
6363 13679 1 0.16500 119244.000000
6364 12929 1 0.16500 119244.000000
6364 22809 1 0.16500 119244.000000
6365 12929 1 0.16500 119244.000000
6365 14035 1 0.16500 119244.000000
6366 12929 1 0.16500 119244.000000
6366 24282 1 0.16500 119244.000000
6367 12929 1 0.16500 119244.000000
6367 14384 1 0.16500 119244.000000
6368 12930 1 0.16500 119244.000000
6368 13121 1 0.16500 119244.000000
6369 12419 1 0.16500 119244.000000
6369 12930 1 0.16500 119244.000000
6370 12930 1 0.16500 119244.000000
6370 13796 1 0.16500 119244.000000
6371 12931 1 0.16500 119244.000000
6371 14834 1 0.16500 119244.000000
6372 12931 1 0.16500 119244.000000
6372 14287 1 0.16500 119244.000000
6373 12931 1 0.16500 119244.000000
6373 15033 1 0.16500 119244.000000
6374 12932 1 0.16500 119244.000000
6374 16014 1 0.16500 119244.000000
6375 12932 1 0.16500 119244.000000
6375 15147 1 0.16500 119244.000000
6376 12933 1 0.16500 119244.000000
6376 14655 1 0.16500 119244.000000
6377 12933 1 0.16500 119244.000000
6377 14866 1 0.16500 119244.000000
6378 15608 1 0.16500 119244.000000
6378 22089 1 0.16500 119244.000000
6379 16805 1 0.16500 119244.000000
6379 22089 1 0.16500 119244.000000
6380 22089 1 0.16500 119244.000000
6380 23745 1 0.16500 119244.000000
6381 12934 1 0.16500 119244.000000
6381 15862 1 0.16500 119244.000000
6382 14970 1 0.16500 119244.000000
6382 16399 1 0.16500 119244.000000
6383 16483 1 0.16500 119244.000000
6383 22101 1 0.16500 119244.000000
6384 22101 1 0.16500 119244.000000
6384 23817 1 0.16500 119244.000000
6385 13803 1 0.16500 119244.000000
6385 22113 1 0.16500 119244.000000
6386 22113 1 0.16500 119244.000000
6386 24486 1 0.16500 119244.000000
6387 12935 1 0.16500 119244.000000
6387 13574 1 0.16500 119244.000000
6388 12935 1 0.16500 119244.000000
6388 14032 1 0.16500 119244.000000
6389 12935 1 0.16500 119244.000000
6389 14422 1 0.16500 119244.000000
6390 12935 1 0.16500 119244.000000
6390 15570 1 0.16500 119244.000000
6391 12936 1 0.16500 119244.000000
6391 15403 1 0.16500 119244.000000
6392 12936 1 0.16500 119244.000000
6392 12940 1 0.16500 119244.000000
6393 12936 1 0.16500 119244.000000
6393 15925 1 0.16500 119244.000000
6394 12936 1 0.16500 119244.000000
6394 16044 1 0.16500 119244.000000
6395 13183 1 0.16500 119244.000000
6395 22125 1 0.16500 119244.000000
6396 22125 1 0.16500 119244.000000
6396 24252 1 0.16500 119244.000000
6397 14147 1 0.16500 119244.000000
6397 22125 1 0.16500 119244.000000
6398 12937 1 0.16500 119244.000000
6398 13066 1 0.16500 119244.000000
6399 12937 1 0.16500 119244.000000
6399 15369 1 0.16500 119244.000000
6400 13066 1 0.16500 119244.000000
6400 14527 1 0.16500 119244.000000
6401 14606 1 0.16500 119244.000000
6401 15820 1 0.16500 119244.000000
6402 12938 1 0.16500 119244.000000
6402 13537 1 0.16500 119244.000000
6403 12938 1 0.16500 119244.000000
6403 14577 1 0.16500 119244.000000
6404 16069 1 0.16500 119244.000000
6404 22137 1 0.16500 119244.000000
6405 14815 1 0.16500 119244.000000
6405 22137 1 0.16500 119244.000000
6406 12951 1 0.16500 119244.000000
6406 22137 1 0.16500 119244.000000
6407 12939 1 0.16500 119244.000000
6407 13323 1 0.16500 119244.000000
6408 12939 1 0.16500 119244.000000
6408 15629 1 0.16500 119244.000000
6409 12940 1 0.16500 119244.000000
6409 14586 1 0.16500 119244.000000
6410 12941 1 0.16500 119244.000000
6410 13333 1 0.16500 119244.000000
6411 12941 1 0.16500 119244.000000
6411 15432 1 0.16500 119244.000000
6412 14295 1 0.16500 119244.000000
6412 15428 1 0.16500 119244.000000
6413 14273 1 0.16500 119244.000000
6413 15428 1 0.16500 119244.000000
6414 12942 1 0.16500 119244.000000
6414 15428 1 0.16500 119244.000000
6415 12943 1 0.16500 119244.000000
6415 24018 1 0.16500 119244.000000
6416 12944 1 0.16500 119244.000000
6416 15813 1 0.16500 119244.000000
6417 15412 1 0.16500 119244.000000
6417 18191 1 0.16500 119244.000000
6418 12944 1 0.16500 119244.000000
6418 15412 1 0.16500 119244.000000
6419 12945 1 0.16500 119244.000000
6419 13232 1 0.16500 119244.000000
6420 12945 1 0.16500 119244.000000
6420 15743 1 0.16500 119244.000000
6421 12946 1 0.16500 119244.000000
6421 14042 1 0.16500 119244.000000
6422 12946 1 0.16500 119244.000000
6422 15215 1 0.16500 119244.000000
6423 13080 1 0.16500 119244.000000
6423 22149 1 0.16500 119244.000000
6424 12947 1 0.16500 119244.000000
6424 13800 1 0.16500 119244.000000
6425 12947 1 0.16500 119244.000000
6425 24462 1 0.16500 119244.000000
6426 12947 1 0.16500 119244.000000
6426 13950 1 0.16500 119244.000000
6427 12947 1 0.16500 119244.000000
6427 22605 1 0.16500 119244.000000
6428 12948 1 0.16500 119244.000000
6428 15380 1 0.16500 119244.000000
6429 12948 1 0.16500 119244.000000
6429 14163 1 0.16500 119244.000000
6430 12949 1 0.16500 119244.000000
6430 15112 1 0.16500 119244.000000
6431 12949 1 0.16500 119244.000000
6431 13337 1 0.16500 119244.000000
6432 12950 1 0.16500 119244.000000
6432 15653 1 0.16500 119244.000000
6433 12950 1 0.16500 119244.000000
6433 13352 1 0.16500 119244.000000
6434 12951 1 0.16500 119244.000000
6434 14505 1 0.16500 119244.000000
6435 12951 1 0.16500 119244.000000
6435 24135 1 0.16500 119244.000000
6436 12951 1 0.16500 119244.000000
6436 14785 1 0.16500 119244.000000
6437 15953 1 0.16500 119244.000000
6437 24135 1 0.16500 119244.000000
6438 12952 1 0.16500 119244.000000
6438 13670 1 0.16500 119244.000000
6439 12952 1 0.16500 119244.000000
6439 13931 1 0.16500 119244.000000
6440 12953 1 0.16500 119244.000000
6440 18009 1 0.16500 119244.000000
6441 12953 1 0.16500 119244.000000
6441 24393 1 0.16500 119244.000000
6442 12953 1 0.16500 119244.000000
6442 15166 1 0.16500 119244.000000
6443 12954 1 0.16500 119244.000000
6443 13436 1 0.16500 119244.000000
6444 12954 1 0.16500 119244.000000
6444 13222 1 0.16500 119244.000000
6445 12954 1 0.16500 119244.000000
6445 13296 1 0.16500 119244.000000
6446 12954 1 0.16500 119244.000000
6446 13604 1 0.16500 119244.000000
6447 12955 1 0.16500 119244.000000
6447 13344 1 0.16500 119244.000000
6448 12955 1 0.16500 119244.000000
6448 23037 1 0.16500 119244.000000
6449 12955 1 0.16500 119244.000000
6449 13684 1 0.16500 119244.000000
6450 12956 1 0.16500 119244.000000
6450 13349 1 0.16500 119244.000000
6451 12956 1 0.16500 119244.000000
6451 14524 1 0.16500 119244.000000
6452 12956 1 0.16500 119244.000000
6452 24264 1 0.16500 119244.000000
6453 12957 1 0.16500 119244.000000
6453 14206 1 0.16500 119244.000000
6454 12957 1 0.16500 119244.000000
6454 15158 1 0.16500 119244.000000
6455 12957 1 0.16500 119244.000000
6455 15370 1 0.16500 119244.000000
6456 12958 1 0.16500 119244.000000
6456 13583 1 0.16500 119244.000000
6457 12958 1 0.16500 119244.000000
6457 13029 1 0.16500 119244.000000
6458 12958 1 0.16500 119244.000000
6458 13900 1 0.16500 119244.000000
6459 12958 1 0.16500 119244.000000
6459 15550 1 0.16500 119244.000000
6460 12959 1 0.16500 119244.000000
6460 14156 1 0.16500 119244.000000
6461 12959 1 0.16500 119244.000000
6461 13536 1 0.16500 119244.000000
6462 12959 1 0.16500 119244.000000
6462 13811 1 0.16500 119244.000000
6463 12959 1 0.16500 119244.000000
6463 14908 1 0.16500 119244.000000
6464 12960 1 0.16500 119244.000000
6464 14184 1 0.16500 119244.000000
6465 12960 1 0.16500 119244.000000
6465 14965 1 0.16500 119244.000000
6466 12960 1 0.16500 119244.000000
6466 15438 1 0.16500 119244.000000
6467 15008 1 0.16500 119244.000000
6467 22161 1 0.16500 119244.000000
6468 12234 1 0.16500 119244.000000
6468 13683 1 0.16500 119244.000000
6469 12961 1 0.16500 119244.000000
6469 13572 1 0.16500 119244.000000
6470 12234 1 0.16500 119244.000000
6470 14402 1 0.16500 119244.000000
6471 12962 1 0.16500 119244.000000
6471 13727 1 0.16500 119244.000000
6472 12962 1 0.16500 119244.000000
6472 14221 1 0.16500 119244.000000
6473 12963 1 0.16500 119244.000000
6473 15299 1 0.16500 119244.000000
6474 12963 1 0.16500 119244.000000
6474 14971 1 0.16500 119244.000000
6475 12963 1 0.16500 119244.000000
6475 15382 1 0.16500 119244.000000
6476 12964 1 0.16500 119244.000000
6476 13123 1 0.16500 119244.000000
6477 12964 1 0.16500 119244.000000
6477 14546 1 0.16500 119244.000000
6478 12964 1 0.16500 119244.000000
6478 15162 1 0.16500 119244.000000
6479 12569 1 0.16500 119244.000000
6479 12965 1 0.16500 119244.000000
6480 12966 1 0.16500 119244.000000
6480 15470 1 0.16500 119244.000000
6481 12966 1 0.16500 119244.000000
6481 13658 1 0.16500 119244.000000
6482 12966 1 0.16500 119244.000000
6482 14720 1 0.16500 119244.000000
6483 12967 1 0.16500 119244.000000
6483 14571 1 0.16500 119244.000000
6484 12967 1 0.16500 119244.000000
6484 15182 1 0.16500 119244.000000
6485 12967 1 0.16500 119244.000000
6485 14030 1 0.16500 119244.000000
6486 16749 1 0.16500 119244.000000
6486 22173 1 0.16500 119244.000000
6487 14063 1 0.16500 119244.000000
6487 22173 1 0.16500 119244.000000
6488 14063 1 0.16500 119244.000000
6488 23541 1 0.16500 119244.000000
6489 12968 1 0.16500 119244.000000
6489 23928 1 0.16500 119244.000000
6490 12969 1 0.16500 119244.000000
6490 13707 1 0.16500 119244.000000
6491 12969 1 0.16500 119244.000000
6491 15069 1 0.16500 119244.000000
6492 12032 1 0.16500 119244.000000
6492 17925 1 0.16500 119244.000000
6493 12970 1 0.16500 119244.000000
6493 14155 1 0.16500 119244.000000
6494 12970 1 0.16500 119244.000000
6494 15736 1 0.16500 119244.000000
6495 12970 1 0.16500 119244.000000
6495 15234 1 0.16500 119244.000000
6496 11837 1 0.16500 119244.000000
6496 12970 1 0.16500 119244.000000
6497 12971 1 0.16500 119244.000000
6497 13648 1 0.16500 119244.000000
6498 12971 1 0.16500 119244.000000
6498 14494 1 0.16500 119244.000000
6499 12971 1 0.16500 119244.000000
6499 14056 1 0.16500 119244.000000
6500 12971 1 0.16500 119244.000000
6500 24579 1 0.16500 119244.000000
6501 12972 1 0.16500 119244.000000
6501 14528 1 0.16500 119244.000000
6502 12972 1 0.16500 119244.000000
6502 13089 1 0.16500 119244.000000
6503 12973 1 0.16500 119244.000000
6503 13922 1 0.16500 119244.000000
6504 12973 1 0.16500 119244.000000
6504 15615 1 0.16500 119244.000000
6505 12974 1 0.16500 119244.000000
6505 15900 1 0.16500 119244.000000
6506 12974 1 0.16500 119244.000000
6506 13275 1 0.16500 119244.000000
6507 12975 1 0.16500 119244.000000
6507 15337 1 0.16500 119244.000000
6508 12976 1 0.16500 119244.000000
6508 14746 1 0.16500 119244.000000
6509 12976 1 0.16500 119244.000000
6509 14715 1 0.16500 119244.000000
6510 12976 1 0.16500 119244.000000
6510 13215 1 0.16500 119244.000000
6511 12976 1 0.16500 119244.000000
6511 14334 1 0.16500 119244.000000
6512 12977 1 0.16500 119244.000000
6512 15975 1 0.16500 119244.000000
6513 12978 1 0.16500 119244.000000
6513 15287 1 0.16500 119244.000000
6514 12978 1 0.16500 119244.000000
6514 14651 1 0.16500 119244.000000
6515 12979 1 0.16500 119244.000000
6515 22905 1 0.16500 119244.000000
6516 12979 1 0.16500 119244.000000
6516 15259 1 0.16500 119244.000000
6517 12980 1 0.16500 119244.000000
6517 24312 1 0.16500 119244.000000
6518 12980 1 0.16500 119244.000000
6518 13241 1 0.16500 119244.000000
6519 23994 1 0.16500 119244.000000
6519 24312 1 0.16500 119244.000000
6520 12981 1 0.16500 119244.000000
6520 15834 1 0.16500 119244.000000
6521 12981 1 0.16500 119244.000000
6521 13915 1 0.16500 119244.000000
6522 12982 1 0.16500 119244.000000
6522 13056 1 0.16500 119244.000000
6523 12982 1 0.16500 119244.000000
6523 14990 1 0.16500 119244.000000
6524 12982 1 0.16500 119244.000000
6524 13726 1 0.16500 119244.000000
6525 15896 1 0.16500 119244.000000
6525 22185 1 0.16500 119244.000000
6526 13729 1 0.16500 119244.000000
6526 22197 1 0.16500 119244.000000
6527 12983 1 0.16500 119244.000000
6527 13145 1 0.16500 119244.000000
6528 12983 1 0.16500 119244.000000
6528 13861 1 0.16500 119244.000000
6529 12983 1 0.16500 119244.000000
6529 16091 1 0.16500 119244.000000
6530 12984 1 0.16500 119244.000000
6530 16021 1 0.16500 119244.000000
6531 12984 1 0.16500 119244.000000
6531 15605 1 0.16500 119244.000000
6532 12985 1 0.16500 119244.000000
6532 13710 1 0.16500 119244.000000
6533 12985 1 0.16500 119244.000000
6533 23922 1 0.16500 119244.000000
6534 12985 1 0.16500 119244.000000
6534 13238 1 0.16500 119244.000000
6535 12985 1 0.16500 119244.000000
6535 13026 1 0.16500 119244.000000
6536 12986 1 0.16500 119244.000000
6536 13851 1 0.16500 119244.000000
6537 12986 1 0.16500 119244.000000
6537 13493 1 0.16500 119244.000000
6538 12987 1 0.16500 119244.000000
6538 24588 1 0.16500 119244.000000
6539 12987 1 0.16500 119244.000000
6539 14203 1 0.16500 119244.000000
6540 12989 1 0.16500 119244.000000
6540 15074 1 0.16500 119244.000000
6541 12989 1 0.16500 119244.000000
6541 15226 1 0.16500 119244.000000
6542 12989 1 0.16500 119244.000000
6542 14176 1 0.16500 119244.000000
6543 12989 1 0.16500 119244.000000
6543 15993 1 0.16500 119244.000000
6544 12990 1 0.16500 119244.000000
6544 13109 1 0.16500 119244.000000
6545 12990 1 0.16500 119244.000000
6545 13678 1 0.16500 119244.000000
6546 13678 1 0.16500 119244.000000
6546 14178 1 0.16500 119244.000000
6547 11471 1 0.16500 119244.000000
6547 13498 1 0.16500 119244.000000
6548 11471 1 0.16500 119244.000000
6548 15318 1 0.16500 119244.000000
6549 11471 1 0.16500 119244.000000
6549 15284 1 0.16500 119244.000000
6550 12992 1 0.16500 119244.000000
6550 13902 1 0.16500 119244.000000
6551 12992 1 0.16500 119244.000000
6551 13471 1 0.16500 119244.000000
6552 13471 1 0.16500 119244.000000
6552 15512 1 0.16500 119244.000000
6553 12993 1 0.16500 119244.000000
6553 13313 1 0.16500 119244.000000
6554 12993 1 0.16500 119244.000000
6554 14924 1 0.16500 119244.000000
6555 11376 1 0.16500 119244.000000
6555 12994 1 0.16500 119244.000000
6556 15583 1 0.16500 119244.000000
6556 22209 1 0.16500 119244.000000
6557 22209 1 0.16500 119244.000000
6557 22281 1 0.16500 119244.000000
6558 16441 1 0.16500 119244.000000
6558 23904 1 0.16500 119244.000000
6559 12995 1 0.16500 119244.000000
6559 15930 1 0.16500 119244.000000
6560 12995 1 0.16500 119244.000000
6560 22257 1 0.16500 119244.000000
6561 12995 1 0.16500 119244.000000
6561 14106 1 0.16500 119244.000000
6562 12995 1 0.16500 119244.000000
6562 16116 1 0.16500 119244.000000
6563 12996 1 0.16500 119244.000000
6563 14725 1 0.16500 119244.000000
6564 12996 1 0.16500 119244.000000
6564 15617 1 0.16500 119244.000000
6565 12996 1 0.16500 119244.000000
6565 14629 1 0.16500 119244.000000
6566 15638 1 0.16500 119244.000000
6566 22221 1 0.16500 119244.000000
6567 22221 1 0.16500 119244.000000
6567 24546 1 0.16500 119244.000000
6568 22221 1 0.16500 119244.000000
6568 23505 1 0.16500 119244.000000
6569 22233 1 0.16500 119244.000000
6569 24015 1 0.16500 119244.000000
6570 15726 1 0.16500 119244.000000
6570 22233 1 0.16500 119244.000000
6571 12997 1 0.16500 119244.000000
6571 15808 1 0.16500 119244.000000
6572 22245 1 0.16500 119244.000000
6572 24033 1 0.16500 119244.000000
6573 14962 1 0.16500 119244.000000
6573 22245 1 0.16500 119244.000000
6574 22761 1 0.16500 119244.000000
6574 24033 1 0.16500 119244.000000
6575 12998 1 0.16500 119244.000000
6575 15968 1 0.16500 119244.000000
6576 12998 1 0.16500 119244.000000
6576 14787 1 0.16500 119244.000000
6577 12998 1 0.16500 119244.000000
6577 14976 1 0.16500 119244.000000
6578 12999 1 0.16500 119244.000000
6578 15982 1 0.16500 119244.000000
6579 12999 1 0.16500 119244.000000
6579 14837 1 0.16500 119244.000000
6580 12999 1 0.16500 119244.000000
6580 13427 1 0.16500 119244.000000
6581 15456 1 0.16500 119244.000000
6581 16455 1 0.16500 119244.000000
6582 13000 1 0.16500 119244.000000
6582 14816 1 0.16500 119244.000000
6583 13000 1 0.16500 119244.000000
6583 13468 1 0.16500 119244.000000
6584 13000 1 0.16500 119244.000000
6584 15542 1 0.16500 119244.000000
6585 13000 1 0.16500 119244.000000
6585 14606 1 0.16500 119244.000000
6586 13001 1 0.16500 119244.000000
6586 14811 1 0.16500 119244.000000
6587 14811 1 0.16500 119244.000000
6587 15512 1 0.16500 119244.000000
6588 13703 1 0.16500 119244.000000
6588 14511 1 0.16500 119244.000000
6589 13002 1 0.16500 119244.000000
6589 14511 1 0.16500 119244.000000
6590 13002 1 0.16500 119244.000000
6590 14430 1 0.16500 119244.000000
6591 13002 1 0.16500 119244.000000
6591 13607 1 0.16500 119244.000000
6592 13003 1 0.16500 119244.000000
6592 13463 1 0.16500 119244.000000
6593 13003 1 0.16500 119244.000000
6593 13049 1 0.16500 119244.000000
6594 13004 1 0.16500 119244.000000
6594 15246 1 0.16500 119244.000000
6595 13004 1 0.16500 119244.000000
6595 24300 1 0.16500 119244.000000
6596 13004 1 0.16500 119244.000000
6596 15092 1 0.16500 119244.000000
6597 13005 1 0.16500 119244.000000
6597 15540 1 0.16500 119244.000000
6598 13005 1 0.16500 119244.000000
6598 14308 1 0.16500 119244.000000
6599 13005 1 0.16500 119244.000000
6599 13620 1 0.16500 119244.000000
6600 13863 1 0.16500 119244.000000
6600 22257 1 0.16500 119244.000000
6601 22257 1 0.16500 119244.000000
6601 23982 1 0.16500 119244.000000
6602 13006 1 0.16500 119244.000000
6602 14601 1 0.16500 119244.000000
6603 13006 1 0.16500 119244.000000
6603 15152 1 0.16500 119244.000000
6604 13006 1 0.16500 119244.000000
6604 14488 1 0.16500 119244.000000
6605 13006 1 0.16500 119244.000000
6605 15353 1 0.16500 119244.000000
6606 13007 1 0.16500 119244.000000
6606 14139 1 0.16500 119244.000000
6607 13007 1 0.16500 119244.000000
6607 14453 1 0.16500 119244.000000
6608 13008 1 0.16500 119244.000000
6608 14257 1 0.16500 119244.000000
6609 13008 1 0.16500 119244.000000
6609 13980 1 0.16500 119244.000000
6610 13008 1 0.16500 119244.000000
6610 14932 1 0.16500 119244.000000
6611 13008 1 0.16500 119244.000000
6611 13536 1 0.16500 119244.000000
6612 13009 1 0.16500 119244.000000
6612 15022 1 0.16500 119244.000000
6613 13009 1 0.16500 119244.000000
6613 14442 1 0.16500 119244.000000
6614 13009 1 0.16500 119244.000000
6614 15327 1 0.16500 119244.000000
6615 13010 1 0.16500 119244.000000
6615 23979 1 0.16500 119244.000000
6616 13002 1 0.16500 119244.000000
6616 13010 1 0.16500 119244.000000
6617 13010 1 0.16500 119244.000000
6617 24474 1 0.16500 119244.000000
6618 13011 1 0.16500 119244.000000
6618 14522 1 0.16500 119244.000000
6619 13011 1 0.16500 119244.000000
6619 15492 1 0.16500 119244.000000
6620 13012 1 0.16500 119244.000000
6620 14052 1 0.16500 119244.000000
6621 13012 1 0.16500 119244.000000
6621 15786 1 0.16500 119244.000000
6622 13419 1 0.16500 119244.000000
6622 14052 1 0.16500 119244.000000
6623 13013 1 0.16500 119244.000000
6623 14978 1 0.16500 119244.000000
6624 13013 1 0.16500 119244.000000
6624 14652 1 0.16500 119244.000000
6625 13014 1 0.16500 119244.000000
6625 15203 1 0.16500 119244.000000
6626 13014 1 0.16500 119244.000000
6626 14603 1 0.16500 119244.000000
6627 13014 1 0.16500 119244.000000
6627 15326 1 0.16500 119244.000000
6628 13014 1 0.16500 119244.000000
6628 15043 1 0.16500 119244.000000
6629 13015 1 0.16500 119244.000000
6629 14985 1 0.16500 119244.000000
6630 13015 1 0.16500 119244.000000
6630 14580 1 0.16500 119244.000000
6631 13016 1 0.16500 119244.000000
6631 14206 1 0.16500 119244.000000
6632 13016 1 0.16500 119244.000000
6632 15426 1 0.16500 119244.000000
6633 13018 1 0.16500 119244.000000
6633 14016 1 0.16500 119244.000000
6634 13018 1 0.16500 119244.000000
6634 14860 1 0.16500 119244.000000
6635 13018 1 0.16500 119244.000000
6635 14195 1 0.16500 119244.000000
6636 13019 1 0.16500 119244.000000
6636 13940 1 0.16500 119244.000000
6637 13019 1 0.16500 119244.000000
6637 14121 1 0.16500 119244.000000
6638 13019 1 0.16500 119244.000000
6638 24405 1 0.16500 119244.000000
6639 13315 1 0.16500 119244.000000
6639 16469 1 0.16500 119244.000000
6640 13020 1 0.16500 119244.000000
6640 15774 1 0.16500 119244.000000
6641 13020 1 0.16500 119244.000000
6641 13910 1 0.16500 119244.000000
6642 13020 1 0.16500 119244.000000
6642 24111 1 0.16500 119244.000000
6643 22269 1 0.16500 119244.000000
6643 23970 1 0.16500 119244.000000
6644 13021 1 0.16500 119244.000000
6644 15625 1 0.16500 119244.000000
6645 12899 1 0.16500 119244.000000
6645 13021 1 0.16500 119244.000000
6646 13021 1 0.16500 119244.000000
6646 16889 1 0.16500 119244.000000
6647 14700 1 0.16500 119244.000000
6647 22281 1 0.16500 119244.000000
6648 16041 1 0.16500 119244.000000
6648 22293 1 0.16500 119244.000000
6649 14327 1 0.16500 119244.000000
6649 22293 1 0.16500 119244.000000
6650 18561 1 0.16500 119244.000000
6650 22293 1 0.16500 119244.000000
6651 13022 1 0.16500 119244.000000
6651 13391 1 0.16500 119244.000000
6652 13022 1 0.16500 119244.000000
6652 13467 1 0.16500 119244.000000
6653 13022 1 0.16500 119244.000000
6653 14790 1 0.16500 119244.000000
6654 13022 1 0.16500 119244.000000
6654 15567 1 0.16500 119244.000000
6655 13023 1 0.16500 119244.000000
6655 13130 1 0.16500 119244.000000
6656 13023 1 0.16500 119244.000000
6656 13324 1 0.16500 119244.000000
6657 13023 1 0.16500 119244.000000
6657 13651 1 0.16500 119244.000000
6658 14312 1 0.16500 119244.000000
6658 16483 1 0.16500 119244.000000
6659 13024 1 0.16500 119244.000000
6659 15710 1 0.16500 119244.000000
6660 13024 1 0.16500 119244.000000
6660 13251 1 0.16500 119244.000000
6661 13024 1 0.16500 119244.000000
6661 14091 1 0.16500 119244.000000
6662 13025 1 0.16500 119244.000000
6662 13480 1 0.16500 119244.000000
6663 13025 1 0.16500 119244.000000
6663 14434 1 0.16500 119244.000000
6664 13026 1 0.16500 119244.000000
6664 18009 1 0.16500 119244.000000
6665 13026 1 0.16500 119244.000000
6665 14273 1 0.16500 119244.000000
6666 13027 1 0.16500 119244.000000
6666 23085 1 0.16500 119244.000000
6667 13027 1 0.16500 119244.000000
6667 15158 1 0.16500 119244.000000
6668 13028 1 0.16500 119244.000000
6668 13384 1 0.16500 119244.000000
6669 13028 1 0.16500 119244.000000
6669 14299 1 0.16500 119244.000000
6670 13028 1 0.16500 119244.000000
6670 15333 1 0.16500 119244.000000
6671 13029 1 0.16500 119244.000000
6671 14374 1 0.16500 119244.000000
6672 13029 1 0.16500 119244.000000
6672 14629 1 0.16500 119244.000000
6673 13030 1 0.16500 119244.000000
6673 16088 1 0.16500 119244.000000
6674 13030 1 0.16500 119244.000000
6674 15383 1 0.16500 119244.000000
6675 13030 1 0.16500 119244.000000
6675 14296 1 0.16500 119244.000000
6676 13031 1 0.16500 119244.000000
6676 13148 1 0.16500 119244.000000
6677 13031 1 0.16500 119244.000000
6677 16194 1 0.16500 119244.000000
6678 13031 1 0.16500 119244.000000
6678 13174 1 0.16500 119244.000000
6679 13032 1 0.16500 119244.000000
6679 15547 1 0.16500 119244.000000
6680 13032 1 0.16500 119244.000000
6680 15658 1 0.16500 119244.000000
6681 13032 1 0.16500 119244.000000
6681 15236 1 0.16500 119244.000000
6682 13032 1 0.16500 119244.000000
6682 14687 1 0.16500 119244.000000
6683 13033 1 0.16500 119244.000000
6683 13570 1 0.16500 119244.000000
6684 13034 1 0.16500 119244.000000
6684 15411 1 0.16500 119244.000000
6685 13035 1 0.16500 119244.000000
6685 15203 1 0.16500 119244.000000
6686 13035 1 0.16500 119244.000000
6686 13952 1 0.16500 119244.000000
6687 13036 1 0.16500 119244.000000
6687 13332 1 0.16500 119244.000000
6688 13037 1 0.16500 119244.000000
6688 16101 1 0.16500 119244.000000
6689 13037 1 0.16500 119244.000000
6689 14100 1 0.16500 119244.000000
6690 13037 1 0.16500 119244.000000
6690 14623 1 0.16500 119244.000000
6691 13038 1 0.16500 119244.000000
6691 13152 1 0.16500 119244.000000
6692 13038 1 0.16500 119244.000000
6692 15124 1 0.16500 119244.000000
6693 13038 1 0.16500 119244.000000
6693 15970 1 0.16500 119244.000000
6694 13038 1 0.16500 119244.000000
6694 14491 1 0.16500 119244.000000
6695 13039 1 0.16500 119244.000000
6695 23313 1 0.16500 119244.000000
6696 13039 1 0.16500 119244.000000
6696 13429 1 0.16500 119244.000000
6697 13039 1 0.16500 119244.000000
6697 13120 1 0.16500 119244.000000
6698 13039 1 0.16500 119244.000000
6698 24567 1 0.16500 119244.000000
6699 13040 1 0.16500 119244.000000
6699 14693 1 0.16500 119244.000000
6700 13040 1 0.16500 119244.000000
6700 15325 1 0.16500 119244.000000
6701 13040 1 0.16500 119244.000000
6701 13903 1 0.16500 119244.000000
6702 13040 1 0.16500 119244.000000
6702 13596 1 0.16500 119244.000000
6703 13041 1 0.16500 119244.000000
6703 14218 1 0.16500 119244.000000
6704 14218 1 0.16500 119244.000000
6704 16114 1 0.16500 119244.000000
6705 13042 1 0.16500 119244.000000
6705 15225 1 0.16500 119244.000000
6706 13042 1 0.16500 119244.000000
6706 13327 1 0.16500 119244.000000
6707 13043 1 0.16500 119244.000000
6707 13801 1 0.16500 119244.000000
6708 13043 1 0.16500 119244.000000
6708 14061 1 0.16500 119244.000000
6709 13044 1 0.16500 119244.000000
6709 13894 1 0.16500 119244.000000
6710 13044 1 0.16500 119244.000000
6710 15127 1 0.16500 119244.000000
6711 13045 1 0.16500 119244.000000
6711 15565 1 0.16500 119244.000000
6712 13046 1 0.16500 119244.000000
6712 15057 1 0.16500 119244.000000
6713 13046 1 0.16500 119244.000000
6713 14267 1 0.16500 119244.000000
6714 13046 1 0.16500 119244.000000
6714 16205 1 0.16500 119244.000000
6715 12518 1 0.16500 119244.000000
6715 13046 1 0.16500 119244.000000
6716 13047 1 0.16500 119244.000000
6716 13374 1 0.16500 119244.000000
6717 13048 1 0.16500 119244.000000
6717 14407 1 0.16500 119244.000000
6718 13048 1 0.16500 119244.000000
6718 15654 1 0.16500 119244.000000
6719 13048 1 0.16500 119244.000000
6719 13923 1 0.16500 119244.000000
6720 13048 1 0.16500 119244.000000
6720 13643 1 0.16500 119244.000000
6721 22305 1 0.16500 119244.000000
6721 23181 1 0.16500 119244.000000
6722 15635 1 0.16500 119244.000000
6722 22305 1 0.16500 119244.000000
6723 13759 1 0.16500 119244.000000
6723 22305 1 0.16500 119244.000000
6724 13049 1 0.16500 119244.000000
6724 15569 1 0.16500 119244.000000
6725 14160 1 0.16500 119244.000000
6725 16497 1 0.16500 119244.000000
6726 14255 1 0.16500 119244.000000
6726 16511 1 0.16500 119244.000000
6727 13050 1 0.16500 119244.000000
6727 14767 1 0.16500 119244.000000
6728 13050 1 0.16500 119244.000000
6728 14966 1 0.16500 119244.000000
6729 13051 1 0.16500 119244.000000
6729 15277 1 0.16500 119244.000000
6730 13051 1 0.16500 119244.000000
6730 14706 1 0.16500 119244.000000
6731 13051 1 0.16500 119244.000000
6731 16038 1 0.16500 119244.000000
6732 13052 1 0.16500 119244.000000
6732 13157 1 0.16500 119244.000000
6733 13052 1 0.16500 119244.000000
6733 24291 1 0.16500 119244.000000
6734 23946 1 0.16500 119244.000000
6734 24426 1 0.16500 119244.000000
6735 24426 1 0.16500 119244.000000
6735 24606 1 0.16500 119244.000000
6736 13053 1 0.16500 119244.000000
6736 14272 1 0.16500 119244.000000
6737 11677 1 0.16500 119244.000000
6737 17491 1 0.16500 119244.000000
6738 13054 1 0.16500 119244.000000
6738 15082 1 0.16500 119244.000000
6739 13054 1 0.16500 119244.000000
6739 13862 1 0.16500 119244.000000
6740 13054 1 0.16500 119244.000000
6740 14705 1 0.16500 119244.000000
6741 17897 1 0.16500 119244.000000
6741 22317 1 0.16500 119244.000000
6742 13684 1 0.16500 119244.000000
6742 22317 1 0.16500 119244.000000
6743 13055 1 0.16500 119244.000000
6743 14472 1 0.16500 119244.000000
6744 13055 1 0.16500 119244.000000
6744 15382 1 0.16500 119244.000000
6745 13055 1 0.16500 119244.000000
6745 15343 1 0.16500 119244.000000
6746 13056 1 0.16500 119244.000000
6746 14613 1 0.16500 119244.000000
6747 13056 1 0.16500 119244.000000
6747 13236 1 0.16500 119244.000000
6748 13057 1 0.16500 119244.000000
6748 15919 1 0.16500 119244.000000
6749 13057 1 0.16500 119244.000000
6749 13208 1 0.16500 119244.000000
6750 13057 1 0.16500 119244.000000
6750 13512 1 0.16500 119244.000000
6751 13057 1 0.16500 119244.000000
6751 16095 1 0.16500 119244.000000
6752 13058 1 0.16500 119244.000000
6752 16199 1 0.16500 119244.000000
6753 13058 1 0.16500 119244.000000
6753 13473 1 0.16500 119244.000000
6754 13058 1 0.16500 119244.000000
6754 13289 1 0.16500 119244.000000
6755 13058 1 0.16500 119244.000000
6755 13400 1 0.16500 119244.000000
6756 14362 1 0.16500 119244.000000
6756 22329 1 0.16500 119244.000000
6757 14203 1 0.16500 119244.000000
6757 22329 1 0.16500 119244.000000
6758 13059 1 0.16500 119244.000000
6758 15012 1 0.16500 119244.000000
6759 13060 1 0.16500 119244.000000
6759 13829 1 0.16500 119244.000000
6760 13060 1 0.16500 119244.000000
6760 15465 1 0.16500 119244.000000
6761 13060 1 0.16500 119244.000000
6761 13379 1 0.16500 119244.000000
6762 13286 1 0.16500 119244.000000
6762 15102 1 0.16500 119244.000000
6763 15085 1 0.16500 119244.000000
6763 15102 1 0.16500 119244.000000
6764 13061 1 0.16500 119244.000000
6764 16163 1 0.16500 119244.000000
6765 13323 1 0.16500 119244.000000
6765 14938 1 0.16500 119244.000000
6766 13062 1 0.16500 119244.000000
6766 15858 1 0.16500 119244.000000
6767 13062 1 0.16500 119244.000000
6767 14938 1 0.16500 119244.000000
6768 12116 1 0.16500 119244.000000
6768 13063 1 0.16500 119244.000000
6769 13063 1 0.16500 119244.000000
6769 13801 1 0.16500 119244.000000
6770 13063 1 0.16500 119244.000000
6770 14129 1 0.16500 119244.000000
6771 13064 1 0.16500 119244.000000
6771 15020 1 0.16500 119244.000000
6772 13064 1 0.16500 119244.000000
6772 15391 1 0.16500 119244.000000
6773 13064 1 0.16500 119244.000000
6773 15085 1 0.16500 119244.000000
6774 13065 1 0.16500 119244.000000
6774 14043 1 0.16500 119244.000000
6775 13065 1 0.16500 119244.000000
6775 15919 1 0.16500 119244.000000
6776 13065 1 0.16500 119244.000000
6776 15980 1 0.16500 119244.000000
6777 13066 1 0.16500 119244.000000
6777 14123 1 0.16500 119244.000000
6778 12937 1 0.16500 119244.000000
6778 16042 1 0.16500 119244.000000
6779 13066 1 0.16500 119244.000000
6779 14214 1 0.16500 119244.000000
6780 13925 1 0.16500 119244.000000
6780 15407 1 0.16500 119244.000000
6781 13067 1 0.16500 119244.000000
6781 13925 1 0.16500 119244.000000
6782 13067 1 0.16500 119244.000000
6782 15897 1 0.16500 119244.000000
6783 13068 1 0.16500 119244.000000
6783 15479 1 0.16500 119244.000000
6784 13068 1 0.16500 119244.000000
6784 15497 1 0.16500 119244.000000
6785 11849 1 0.16500 119244.000000
6785 15283 1 0.16500 119244.000000
6786 13069 1 0.16500 119244.000000
6786 14485 1 0.16500 119244.000000
6787 15283 1 0.16500 119244.000000
6787 16213 1 0.16500 119244.000000
6788 13070 1 0.16500 119244.000000
6788 13518 1 0.16500 119244.000000
6789 13070 1 0.16500 119244.000000
6789 13455 1 0.16500 119244.000000
6790 13070 1 0.16500 119244.000000
6790 14339 1 0.16500 119244.000000
6791 13071 1 0.16500 119244.000000
6791 13300 1 0.16500 119244.000000
6792 13071 1 0.16500 119244.000000
6792 14826 1 0.16500 119244.000000
6793 13071 1 0.16500 119244.000000
6793 14039 1 0.16500 119244.000000
6794 12141 1 0.16500 119244.000000
6794 14460 1 0.16500 119244.000000
6795 13072 1 0.16500 119244.000000
6795 15412 1 0.16500 119244.000000
6796 13073 1 0.16500 119244.000000
6796 16085 1 0.16500 119244.000000
6797 13073 1 0.16500 119244.000000
6797 14125 1 0.16500 119244.000000
6798 13074 1 0.16500 119244.000000
6798 14508 1 0.16500 119244.000000
6799 13074 1 0.16500 119244.000000
6799 15643 1 0.16500 119244.000000
6800 13074 1 0.16500 119244.000000
6800 13544 1 0.16500 119244.000000
6801 13075 1 0.16500 119244.000000
6801 15907 1 0.16500 119244.000000
6802 13075 1 0.16500 119244.000000
6802 13093 1 0.16500 119244.000000
6803 13075 1 0.16500 119244.000000
6803 15529 1 0.16500 119244.000000
6804 13076 1 0.16500 119244.000000
6804 16058 1 0.16500 119244.000000
6805 13076 1 0.16500 119244.000000
6805 15926 1 0.16500 119244.000000
6806 13076 1 0.16500 119244.000000
6806 15189 1 0.16500 119244.000000
6807 13077 1 0.16500 119244.000000
6807 15310 1 0.16500 119244.000000
6808 13077 1 0.16500 119244.000000
6808 13616 1 0.16500 119244.000000
6809 13077 1 0.16500 119244.000000
6809 16164 1 0.16500 119244.000000
6810 12613 1 0.16500 119244.000000
6810 13188 1 0.16500 119244.000000
6811 13079 1 0.16500 119244.000000
6811 15950 1 0.16500 119244.000000
6812 13080 1 0.16500 119244.000000
6812 15527 1 0.16500 119244.000000
6813 13081 1 0.16500 119244.000000
6813 14215 1 0.16500 119244.000000
6814 13081 1 0.16500 119244.000000
6814 14848 1 0.16500 119244.000000
6815 12491 1 0.16500 119244.000000
6815 13082 1 0.16500 119244.000000
6816 13082 1 0.16500 119244.000000
6816 15213 1 0.16500 119244.000000
6817 13083 1 0.16500 119244.000000
6817 14783 1 0.16500 119244.000000
6818 13083 1 0.16500 119244.000000
6818 15156 1 0.16500 119244.000000
6819 13084 1 0.16500 119244.000000
6819 14597 1 0.16500 119244.000000
6820 12764 1 0.16500 119244.000000
6820 13084 1 0.16500 119244.000000
6821 13084 1 0.16500 119244.000000
6821 15887 1 0.16500 119244.000000
6822 12992 1 0.16500 119244.000000
6822 13084 1 0.16500 119244.000000
6823 15922 1 0.16500 119244.000000
6823 22353 1 0.16500 119244.000000
6824 15781 1 0.16500 119244.000000
6824 22353 1 0.16500 119244.000000
6825 13086 1 0.16500 119244.000000
6825 14312 1 0.16500 119244.000000
6826 13086 1 0.16500 119244.000000
6826 15332 1 0.16500 119244.000000
6827 13086 1 0.16500 119244.000000
6827 17029 1 0.16500 119244.000000
6828 13087 1 0.16500 119244.000000
6828 15603 1 0.16500 119244.000000
6829 13087 1 0.16500 119244.000000
6829 16093 1 0.16500 119244.000000
6830 13087 1 0.16500 119244.000000
6830 15126 1 0.16500 119244.000000
6831 13088 1 0.16500 119244.000000
6831 13128 1 0.16500 119244.000000
6832 13088 1 0.16500 119244.000000
6832 13842 1 0.16500 119244.000000
6833 13089 1 0.16500 119244.000000
6833 15417 1 0.16500 119244.000000
6834 13089 1 0.16500 119244.000000
6834 13719 1 0.16500 119244.000000
6835 13090 1 0.16500 119244.000000
6835 18247 1 0.16500 119244.000000
6836 14284 1 0.16500 119244.000000
6836 23445 1 0.16500 119244.000000
6837 13090 1 0.16500 119244.000000
6837 14284 1 0.16500 119244.000000
6838 13091 1 0.16500 119244.000000
6838 16166 1 0.16500 119244.000000
6839 13091 1 0.16500 119244.000000
6839 14415 1 0.16500 119244.000000
6840 13092 1 0.16500 119244.000000
6840 14587 1 0.16500 119244.000000
6841 13093 1 0.16500 119244.000000
6841 14538 1 0.16500 119244.000000
6842 13093 1 0.16500 119244.000000
6842 14525 1 0.16500 119244.000000
6843 13094 1 0.16500 119244.000000
6843 24255 1 0.16500 119244.000000
6844 13094 1 0.16500 119244.000000
6844 13366 1 0.16500 119244.000000
6845 13095 1 0.16500 119244.000000
6845 14537 1 0.16500 119244.000000
6846 13095 1 0.16500 119244.000000
6846 14209 1 0.16500 119244.000000
6847 13095 1 0.16500 119244.000000
6847 15274 1 0.16500 119244.000000
6848 13095 1 0.16500 119244.000000
6848 15685 1 0.16500 119244.000000
6849 13096 1 0.16500 119244.000000
6849 15147 1 0.16500 119244.000000
6850 13096 1 0.16500 119244.000000
6850 14652 1 0.16500 119244.000000
6851 13096 1 0.16500 119244.000000
6851 13495 1 0.16500 119244.000000
6852 11413 1 0.16500 119244.000000
6852 13097 1 0.16500 119244.000000
6853 11780 1 0.16500 119244.000000
6853 13097 1 0.16500 119244.000000
6854 13098 1 0.16500 119244.000000
6854 24222 1 0.16500 119244.000000
6855 13098 1 0.16500 119244.000000
6855 15397 1 0.16500 119244.000000
6856 13099 1 0.16500 119244.000000
6856 15413 1 0.16500 119244.000000
6857 13099 1 0.16500 119244.000000
6857 14146 1 0.16500 119244.000000
6858 13099 1 0.16500 119244.000000
6858 15050 1 0.16500 119244.000000
6859 13099 1 0.16500 119244.000000
6859 15300 1 0.16500 119244.000000
6860 13100 1 0.16500 119244.000000
6860 15354 1 0.16500 119244.000000
6861 12206 1 0.16500 119244.000000
6861 15995 1 0.16500 119244.000000
6862 13100 1 0.16500 119244.000000
6862 14317 1 0.16500 119244.000000
6863 13101 1 0.16500 119244.000000
6863 15815 1 0.16500 119244.000000
6864 13102 1 0.16500 119244.000000
6864 15575 1 0.16500 119244.000000
6865 13102 1 0.16500 119244.000000
6865 14745 1 0.16500 119244.000000
6866 13102 1 0.16500 119244.000000
6866 15925 1 0.16500 119244.000000
6867 13880 1 0.16500 119244.000000
6867 16116 1 0.16500 119244.000000
6868 13103 1 0.16500 119244.000000
6868 23982 1 0.16500 119244.000000
6869 13103 1 0.16500 119244.000000
6869 13880 1 0.16500 119244.000000
6870 13104 1 0.16500 119244.000000
6870 14642 1 0.16500 119244.000000
6871 13104 1 0.16500 119244.000000
6871 14446 1 0.16500 119244.000000
6872 13105 1 0.16500 119244.000000
6872 15493 1 0.16500 119244.000000
6873 13105 1 0.16500 119244.000000
6873 14416 1 0.16500 119244.000000
6874 13105 1 0.16500 119244.000000
6874 15769 1 0.16500 119244.000000
6875 13106 1 0.16500 119244.000000
6875 14041 1 0.16500 119244.000000
6876 13106 1 0.16500 119244.000000
6876 13819 1 0.16500 119244.000000
6877 13106 1 0.16500 119244.000000
6877 15587 1 0.16500 119244.000000
6878 13107 1 0.16500 119244.000000
6878 14601 1 0.16500 119244.000000
6879 13107 1 0.16500 119244.000000
6879 15313 1 0.16500 119244.000000
6880 13108 1 0.16500 119244.000000
6880 16126 1 0.16500 119244.000000
6881 13108 1 0.16500 119244.000000
6881 14630 1 0.16500 119244.000000
6882 13108 1 0.16500 119244.000000
6882 13652 1 0.16500 119244.000000
6883 11887 1 0.16500 119244.000000
6883 13109 1 0.16500 119244.000000
6884 13109 1 0.16500 119244.000000
6884 14010 1 0.16500 119244.000000
6885 13110 1 0.16500 119244.000000
6885 15392 1 0.16500 119244.000000
6886 13110 1 0.16500 119244.000000
6886 15910 1 0.16500 119244.000000
6887 13111 1 0.16500 119244.000000
6887 13642 1 0.16500 119244.000000
6888 13112 1 0.16500 119244.000000
6888 13444 1 0.16500 119244.000000
6889 13113 1 0.16500 119244.000000
6889 23925 1 0.16500 119244.000000
6890 13113 1 0.16500 119244.000000
6890 13609 1 0.16500 119244.000000
6891 13114 1 0.16500 119244.000000
6891 15472 1 0.16500 119244.000000
6892 13114 1 0.16500 119244.000000
6892 24066 1 0.16500 119244.000000
6893 13115 1 0.16500 119244.000000
6893 13900 1 0.16500 119244.000000
6894 13115 1 0.16500 119244.000000
6894 14442 1 0.16500 119244.000000
6895 13116 1 0.16500 119244.000000
6895 14324 1 0.16500 119244.000000
6896 13116 1 0.16500 119244.000000
6896 14986 1 0.16500 119244.000000
6897 14986 1 0.16500 119244.000000
6897 15173 1 0.16500 119244.000000
6898 13116 1 0.16500 119244.000000
6898 15213 1 0.16500 119244.000000
6899 22365 1 0.16500 119244.000000
6899 23241 1 0.16500 119244.000000
6900 15309 1 0.16500 119244.000000
6900 22365 1 0.16500 119244.000000
6901 16525 1 0.16500 119244.000000
6901 24273 1 0.16500 119244.000000
6902 13117 1 0.16500 119244.000000
6902 14448 1 0.16500 119244.000000
6903 13117 1 0.16500 119244.000000
6903 13784 1 0.16500 119244.000000
6904 13117 1 0.16500 119244.000000
6904 14759 1 0.16500 119244.000000
6905 13118 1 0.16500 119244.000000
6905 13554 1 0.16500 119244.000000
6906 13119 1 0.16500 119244.000000
6906 13278 1 0.16500 119244.000000
6907 13119 1 0.16500 119244.000000
6907 15436 1 0.16500 119244.000000
6908 13119 1 0.16500 119244.000000
6908 15351 1 0.16500 119244.000000
6909 13119 1 0.16500 119244.000000
6909 24234 1 0.16500 119244.000000
6910 13120 1 0.16500 119244.000000
6910 13872 1 0.16500 119244.000000
6911 13121 1 0.16500 119244.000000
6911 14753 1 0.16500 119244.000000
6912 13121 1 0.16500 119244.000000
6912 13325 1 0.16500 119244.000000
6913 13122 1 0.16500 119244.000000
6913 24363 1 0.16500 119244.000000
6914 13122 1 0.16500 119244.000000
6914 14499 1 0.16500 119244.000000
6915 13122 1 0.16500 119244.000000
6915 24594 1 0.16500 119244.000000
6916 13323 1 0.16500 119244.000000
6916 22377 1 0.16500 119244.000000
6917 14329 1 0.16500 119244.000000
6917 22377 1 0.16500 119244.000000
6918 13123 1 0.16500 119244.000000
6918 14044 1 0.16500 119244.000000
6919 13123 1 0.16500 119244.000000
6919 14710 1 0.16500 119244.000000
6920 13123 1 0.16500 119244.000000
6920 14817 1 0.16500 119244.000000
6921 15971 1 0.16500 119244.000000
6921 16539 1 0.16500 119244.000000
6922 13124 1 0.16500 119244.000000
6922 13621 1 0.16500 119244.000000
6923 13124 1 0.16500 119244.000000
6923 14128 1 0.16500 119244.000000
6924 14128 1 0.16500 119244.000000
6924 23289 1 0.16500 119244.000000
6925 13125 1 0.16500 119244.000000
6925 13332 1 0.16500 119244.000000
6926 14622 1 0.16500 119244.000000
6926 16553 1 0.16500 119244.000000
6927 13126 1 0.16500 119244.000000
6927 14784 1 0.16500 119244.000000
6928 13126 1 0.16500 119244.000000
6928 24096 1 0.16500 119244.000000
6929 13126 1 0.16500 119244.000000
6929 15009 1 0.16500 119244.000000
6930 13127 1 0.16500 119244.000000
6930 13705 1 0.16500 119244.000000
6931 22389 1 0.16500 119244.000000
6931 24504 1 0.16500 119244.000000
6932 22389 1 0.16500 119244.000000
6932 23301 1 0.16500 119244.000000
6933 13128 1 0.16500 119244.000000
6933 13818 1 0.16500 119244.000000
6934 13128 1 0.16500 119244.000000
6934 15119 1 0.16500 119244.000000
6935 13129 1 0.16500 119244.000000
6935 13855 1 0.16500 119244.000000
6936 13129 1 0.16500 119244.000000
6936 14755 1 0.16500 119244.000000
6937 13129 1 0.16500 119244.000000
6937 15081 1 0.16500 119244.000000
6938 13130 1 0.16500 119244.000000
6938 15084 1 0.16500 119244.000000
6939 13130 1 0.16500 119244.000000
6939 24639 1 0.16500 119244.000000
6940 13130 1 0.16500 119244.000000
6940 13761 1 0.16500 119244.000000
6941 13131 1 0.16500 119244.000000
6941 15371 1 0.16500 119244.000000
6942 13131 1 0.16500 119244.000000
6942 15317 1 0.16500 119244.000000
6943 13131 1 0.16500 119244.000000
6943 13400 1 0.16500 119244.000000
6944 13132 1 0.16500 119244.000000
6944 15652 1 0.16500 119244.000000
6945 13132 1 0.16500 119244.000000
6945 14477 1 0.16500 119244.000000
6946 13133 1 0.16500 119244.000000
6946 13894 1 0.16500 119244.000000
6947 13133 1 0.16500 119244.000000
6947 15584 1 0.16500 119244.000000
6948 14161 1 0.16500 119244.000000
6948 14614 1 0.16500 119244.000000
6949 14614 1 0.16500 119244.000000
6949 14785 1 0.16500 119244.000000
6950 14614 1 0.16500 119244.000000
6950 22401 1 0.16500 119244.000000
6951 13134 1 0.16500 119244.000000
6951 15276 1 0.16500 119244.000000
6952 13134 1 0.16500 119244.000000
6952 13365 1 0.16500 119244.000000
6953 13134 1 0.16500 119244.000000
6953 15355 1 0.16500 119244.000000
6954 13134 1 0.16500 119244.000000
6954 15275 1 0.16500 119244.000000
6955 13135 1 0.16500 119244.000000
6955 16054 1 0.16500 119244.000000
6956 13135 1 0.16500 119244.000000
6956 14522 1 0.16500 119244.000000
6957 13135 1 0.16500 119244.000000
6957 13461 1 0.16500 119244.000000
6958 13136 1 0.16500 119244.000000
6958 15628 1 0.16500 119244.000000
6959 12256 1 0.16500 119244.000000
6959 16195 1 0.16500 119244.000000
6960 13137 1 0.16500 119244.000000
6960 14027 1 0.16500 119244.000000
6961 13113 1 0.16500 119244.000000
6961 22413 1 0.16500 119244.000000
6962 13138 1 0.16500 119244.000000
6962 14448 1 0.16500 119244.000000
6963 13138 1 0.16500 119244.000000
6963 13446 1 0.16500 119244.000000
6964 13446 1 0.16500 119244.000000
6964 14208 1 0.16500 119244.000000
6965 13362 1 0.16500 119244.000000
6965 14889 1 0.16500 119244.000000
6966 13139 1 0.16500 119244.000000
6966 14697 1 0.16500 119244.000000
6967 13139 1 0.16500 119244.000000
6967 14889 1 0.16500 119244.000000
6968 13140 1 0.16500 119244.000000
6968 14558 1 0.16500 119244.000000
6969 14558 1 0.16500 119244.000000
6969 14999 1 0.16500 119244.000000
6970 13141 1 0.16500 119244.000000
6970 14510 1 0.16500 119244.000000
6971 12146 1 0.16500 119244.000000
6971 13355 1 0.16500 119244.000000
6972 13142 1 0.16500 119244.000000
6972 14202 1 0.16500 119244.000000
6973 13142 1 0.16500 119244.000000
6973 14011 1 0.16500 119244.000000
6974 13142 1 0.16500 119244.000000
6974 15569 1 0.16500 119244.000000
6975 13143 1 0.16500 119244.000000
6975 14980 1 0.16500 119244.000000
6976 13143 1 0.16500 119244.000000
6976 14319 1 0.16500 119244.000000
6977 13143 1 0.16500 119244.000000
6977 13359 1 0.16500 119244.000000
6978 14421 1 0.16500 119244.000000
6978 22425 1 0.16500 119244.000000
6979 13144 1 0.16500 119244.000000
6979 15627 1 0.16500 119244.000000
6980 13144 1 0.16500 119244.000000
6980 14201 1 0.16500 119244.000000
6981 13144 1 0.16500 119244.000000
6981 15082 1 0.16500 119244.000000
6982 13145 1 0.16500 119244.000000
6982 14709 1 0.16500 119244.000000
6983 13145 1 0.16500 119244.000000
6983 14930 1 0.16500 119244.000000
6984 13146 1 0.16500 119244.000000
6984 14249 1 0.16500 119244.000000
6985 13146 1 0.16500 119244.000000
6985 14954 1 0.16500 119244.000000
6986 13146 1 0.16500 119244.000000
6986 13469 1 0.16500 119244.000000
6987 13147 1 0.16500 119244.000000
6987 24456 1 0.16500 119244.000000
6988 13147 1 0.16500 119244.000000
6988 24225 1 0.16500 119244.000000
6989 13148 1 0.16500 119244.000000
6989 13360 1 0.16500 119244.000000
6990 13148 1 0.16500 119244.000000
6990 14702 1 0.16500 119244.000000
6991 13149 1 0.16500 119244.000000
6991 15251 1 0.16500 119244.000000
6992 13149 1 0.16500 119244.000000
6992 15865 1 0.16500 119244.000000
6993 13150 1 0.16500 119244.000000
6993 15714 1 0.16500 119244.000000
6994 13150 1 0.16500 119244.000000
6994 15956 1 0.16500 119244.000000
6995 13151 1 0.16500 119244.000000
6995 13647 1 0.16500 119244.000000
6996 13151 1 0.16500 119244.000000
6996 14205 1 0.16500 119244.000000
6997 13152 1 0.16500 119244.000000
6997 24339 1 0.16500 119244.000000
6998 13153 1 0.16500 119244.000000
6998 13764 1 0.16500 119244.000000
6999 13153 1 0.16500 119244.000000
6999 13379 1 0.16500 119244.000000
7000 13154 1 0.16500 119244.000000
7000 15402 1 0.16500 119244.000000
7001 13585 1 0.16500 119244.000000
7001 22449 1 0.16500 119244.000000
7002 11388 1 0.16500 119244.000000
7002 13155 1 0.16500 119244.000000
7003 13156 1 0.16500 119244.000000
7003 15358 1 0.16500 119244.000000
7004 13156 1 0.16500 119244.000000
7004 15837 1 0.16500 119244.000000
7005 13156 1 0.16500 119244.000000
7005 15115 1 0.16500 119244.000000
7006 13157 1 0.16500 119244.000000
7006 15151 1 0.16500 119244.000000
7007 13158 1 0.16500 119244.000000
7007 14823 1 0.16500 119244.000000
7008 13158 1 0.16500 119244.000000
7008 24570 1 0.16500 119244.000000
7009 13158 1 0.16500 119244.000000
7009 14433 1 0.16500 119244.000000
7010 13159 1 0.16500 119244.000000
7010 14075 1 0.16500 119244.000000
7011 13159 1 0.16500 119244.000000
7011 15313 1 0.16500 119244.000000
7012 13159 1 0.16500 119244.000000
7012 14617 1 0.16500 119244.000000
7013 13160 1 0.16500 119244.000000
7013 14740 1 0.16500 119244.000000
7014 13160 1 0.16500 119244.000000
7014 14091 1 0.16500 119244.000000
7015 13160 1 0.16500 119244.000000
7015 15710 1 0.16500 119244.000000
7016 13160 1 0.16500 119244.000000
7016 15292 1 0.16500 119244.000000
7017 13161 1 0.16500 119244.000000
7017 15271 1 0.16500 119244.000000
7018 13161 1 0.16500 119244.000000
7018 16021 1 0.16500 119244.000000
7019 14356 1 0.16500 119244.000000
7019 22461 1 0.16500 119244.000000
7020 17771 1 0.16500 119244.000000
7020 22461 1 0.16500 119244.000000
7021 13162 1 0.16500 119244.000000
7021 15595 1 0.16500 119244.000000
7022 13162 1 0.16500 119244.000000
7022 13300 1 0.16500 119244.000000
7023 13162 1 0.16500 119244.000000
7023 16029 1 0.16500 119244.000000
7024 13163 1 0.16500 119244.000000
7024 15386 1 0.16500 119244.000000
7025 13163 1 0.16500 119244.000000
7025 13872 1 0.16500 119244.000000
7026 13163 1 0.16500 119244.000000
7026 15243 1 0.16500 119244.000000
7027 13163 1 0.16500 119244.000000
7027 15536 1 0.16500 119244.000000
7028 13164 1 0.16500 119244.000000
7028 13642 1 0.16500 119244.000000
7029 13164 1 0.16500 119244.000000
7029 14736 1 0.16500 119244.000000
7030 13164 1 0.16500 119244.000000
7030 15980 1 0.16500 119244.000000
7031 13164 1 0.16500 119244.000000
7031 13208 1 0.16500 119244.000000
7032 13165 1 0.16500 119244.000000
7032 15440 1 0.16500 119244.000000
7033 13165 1 0.16500 119244.000000
7033 15577 1 0.16500 119244.000000
7034 13165 1 0.16500 119244.000000
7034 14193 1 0.16500 119244.000000
7035 13166 1 0.16500 119244.000000
7035 13844 1 0.16500 119244.000000
7036 13166 1 0.16500 119244.000000
7036 14923 1 0.16500 119244.000000
7037 13166 1 0.16500 119244.000000
7037 24612 1 0.16500 119244.000000
7038 13167 1 0.16500 119244.000000
7038 15820 1 0.16500 119244.000000
7039 13167 1 0.16500 119244.000000
7039 14850 1 0.16500 119244.000000
7040 13167 1 0.16500 119244.000000
7040 14137 1 0.16500 119244.000000
7041 13167 1 0.16500 119244.000000
7041 15879 1 0.16500 119244.000000
7042 13168 1 0.16500 119244.000000
7042 15026 1 0.16500 119244.000000
7043 13168 1 0.16500 119244.000000
7043 14916 1 0.16500 119244.000000
7044 13169 1 0.16500 119244.000000
7044 14148 1 0.16500 119244.000000
7045 13169 1 0.16500 119244.000000
7045 14024 1 0.16500 119244.000000
7046 13169 1 0.16500 119244.000000
7046 14937 1 0.16500 119244.000000
7047 13170 1 0.16500 119244.000000
7047 15648 1 0.16500 119244.000000
7048 13170 1 0.16500 119244.000000
7048 13553 1 0.16500 119244.000000
7049 13170 1 0.16500 119244.000000
7049 14006 1 0.16500 119244.000000
7050 13170 1 0.16500 119244.000000
7050 14515 1 0.16500 119244.000000
7051 13171 1 0.16500 119244.000000
7051 14713 1 0.16500 119244.000000
7052 15687 1 0.16500 119244.000000
7052 22473 1 0.16500 119244.000000
7053 13172 1 0.16500 119244.000000
7053 13966 1 0.16500 119244.000000
7054 13172 1 0.16500 119244.000000
7054 13434 1 0.16500 119244.000000
7055 13173 1 0.16500 119244.000000
7055 16143 1 0.16500 119244.000000
7056 13174 1 0.16500 119244.000000
7056 16164 1 0.16500 119244.000000
7057 13174 1 0.16500 119244.000000
7057 13983 1 0.16500 119244.000000
7058 13175 1 0.16500 119244.000000
7058 13760 1 0.16500 119244.000000
7059 13175 1 0.16500 119244.000000
7059 13959 1 0.16500 119244.000000
7060 13175 1 0.16500 119244.000000
7060 15702 1 0.16500 119244.000000
7061 13176 1 0.16500 119244.000000
7061 14040 1 0.16500 119244.000000
7062 13176 1 0.16500 119244.000000
7062 14909 1 0.16500 119244.000000
7063 14040 1 0.16500 119244.000000
7063 15367 1 0.16500 119244.000000
7064 13176 1 0.16500 119244.000000
7064 23361 1 0.16500 119244.000000
7065 15131 1 0.16500 119244.000000
7065 16581 1 0.16500 119244.000000
7066 16581 1 0.16500 119244.000000
7066 16693 1 0.16500 119244.000000
7067 13177 1 0.16500 119244.000000
7067 14220 1 0.16500 119244.000000
7068 13177 1 0.16500 119244.000000
7068 15404 1 0.16500 119244.000000
7069 13177 1 0.16500 119244.000000
7069 14697 1 0.16500 119244.000000
7070 13177 1 0.16500 119244.000000
7070 14036 1 0.16500 119244.000000
7071 13178 1 0.16500 119244.000000
7071 15480 1 0.16500 119244.000000
7072 13178 1 0.16500 119244.000000
7072 15982 1 0.16500 119244.000000
7073 13178 1 0.16500 119244.000000
7073 17855 1 0.16500 119244.000000
7074 13179 1 0.16500 119244.000000
7074 14683 1 0.16500 119244.000000
7075 13179 1 0.16500 119244.000000
7075 13795 1 0.16500 119244.000000
7076 13179 1 0.16500 119244.000000
7076 15386 1 0.16500 119244.000000
7077 13180 1 0.16500 119244.000000
7077 14541 1 0.16500 119244.000000
7078 13180 1 0.16500 119244.000000
7078 15087 1 0.16500 119244.000000
7079 13181 1 0.16500 119244.000000
7079 15568 1 0.16500 119244.000000
7080 13181 1 0.16500 119244.000000
7080 14308 1 0.16500 119244.000000
7081 13181 1 0.16500 119244.000000
7081 14984 1 0.16500 119244.000000
7082 14308 1 0.16500 119244.000000
7082 15753 1 0.16500 119244.000000
7083 13182 1 0.16500 119244.000000
7083 14266 1 0.16500 119244.000000
7084 13182 1 0.16500 119244.000000
7084 13335 1 0.16500 119244.000000
7085 12201 1 0.16500 119244.000000
7085 13183 1 0.16500 119244.000000
7086 13183 1 0.16500 119244.000000
7086 14566 1 0.16500 119244.000000
7087 13184 1 0.16500 119244.000000
7087 14304 1 0.16500 119244.000000
7088 13184 1 0.16500 119244.000000
7088 13885 1 0.16500 119244.000000
7089 13184 1 0.16500 119244.000000
7089 14145 1 0.16500 119244.000000
7090 13185 1 0.16500 119244.000000
7090 15644 1 0.16500 119244.000000
7091 13297 1 0.16500 119244.000000
7091 15688 1 0.16500 119244.000000
7092 13185 1 0.16500 119244.000000
7092 15688 1 0.16500 119244.000000
7093 13185 1 0.16500 119244.000000
7093 13316 1 0.16500 119244.000000
7094 13186 1 0.16500 119244.000000
7094 24312 1 0.16500 119244.000000
7095 13187 1 0.16500 119244.000000
7095 15793 1 0.16500 119244.000000
7096 13187 1 0.16500 119244.000000
7096 15445 1 0.16500 119244.000000
7097 13187 1 0.16500 119244.000000
7097 15934 1 0.16500 119244.000000
7098 14312 1 0.16500 119244.000000
7098 22485 1 0.16500 119244.000000
7099 13188 1 0.16500 119244.000000
7099 22857 1 0.16500 119244.000000
7100 13188 1 0.16500 119244.000000
7100 14307 1 0.16500 119244.000000
7101 13189 1 0.16500 119244.000000
7101 14581 1 0.16500 119244.000000
7102 13189 1 0.16500 119244.000000
7102 14370 1 0.16500 119244.000000
7103 13190 1 0.16500 119244.000000
7103 13483 1 0.16500 119244.000000
7104 13190 1 0.16500 119244.000000
7104 13879 1 0.16500 119244.000000
7105 13191 1 0.16500 119244.000000
7105 15897 1 0.16500 119244.000000
7106 13191 1 0.16500 119244.000000
7106 14127 1 0.16500 119244.000000
7107 13191 1 0.16500 119244.000000
7107 14899 1 0.16500 119244.000000
7108 13192 1 0.16500 119244.000000
7108 15694 1 0.16500 119244.000000
7109 13192 1 0.16500 119244.000000
7109 14612 1 0.16500 119244.000000
7110 13192 1 0.16500 119244.000000
7110 14775 1 0.16500 119244.000000
7111 13192 1 0.16500 119244.000000
7111 15812 1 0.16500 119244.000000
7112 16186 1 0.16500 119244.000000
7112 22497 1 0.16500 119244.000000
7113 22497 1 0.16500 119244.000000
7113 24629 1 0.16500 119244.000000
7114 14613 1 0.16500 119244.000000
7114 22497 1 0.16500 119244.000000
7115 13193 1 0.16500 119244.000000
7115 14858 1 0.16500 119244.000000
7116 13193 1 0.16500 119244.000000
7116 15513 1 0.16500 119244.000000
7117 13193 1 0.16500 119244.000000
7117 15109 1 0.16500 119244.000000
7118 13194 1 0.16500 119244.000000
7118 14386 1 0.16500 119244.000000
7119 13194 1 0.16500 119244.000000
7119 14835 1 0.16500 119244.000000
7120 13194 1 0.16500 119244.000000
7120 14643 1 0.16500 119244.000000
7121 13195 1 0.16500 119244.000000
7121 15358 1 0.16500 119244.000000
7122 13195 1 0.16500 119244.000000
7122 13666 1 0.16500 119244.000000
7123 13195 1 0.16500 119244.000000
7123 13227 1 0.16500 119244.000000
7124 13196 1 0.16500 119244.000000
7124 14358 1 0.16500 119244.000000
7125 13196 1 0.16500 119244.000000
7125 15532 1 0.16500 119244.000000
7126 14358 1 0.16500 119244.000000
7126 23919 1 0.16500 119244.000000
7127 13197 1 0.16500 119244.000000
7127 24369 1 0.16500 119244.000000
7128 13197 1 0.16500 119244.000000
7128 13375 1 0.16500 119244.000000
7129 13197 1 0.16500 119244.000000
7129 13269 1 0.16500 119244.000000
7130 13197 1 0.16500 119244.000000
7130 15741 1 0.16500 119244.000000
7131 13198 1 0.16500 119244.000000
7131 15544 1 0.16500 119244.000000
7132 14466 1 0.16500 119244.000000
7132 15544 1 0.16500 119244.000000
7133 13199 1 0.16500 119244.000000
7133 14410 1 0.16500 119244.000000
7134 13199 1 0.16500 119244.000000
7134 16057 1 0.16500 119244.000000
7135 13200 1 0.16500 119244.000000
7135 13383 1 0.16500 119244.000000
7136 13200 1 0.16500 119244.000000
7136 13519 1 0.16500 119244.000000
7137 13200 1 0.16500 119244.000000
7137 15051 1 0.16500 119244.000000
7138 13201 1 0.16500 119244.000000
7138 14538 1 0.16500 119244.000000
7139 13201 1 0.16500 119244.000000
7139 14390 1 0.16500 119244.000000
7140 13201 1 0.16500 119244.000000
7140 15658 1 0.16500 119244.000000
7141 22521 1 0.16500 119244.000000
7141 24168 1 0.16500 119244.000000
7142 22521 1 0.16500 119244.000000
7142 23685 1 0.16500 119244.000000
7143 13202 1 0.16500 119244.000000
7143 13344 1 0.16500 119244.000000
7144 12621 1 0.16500 119244.000000
7144 14109 1 0.16500 119244.000000
7145 13202 1 0.16500 119244.000000
7145 14747 1 0.16500 119244.000000
7146 13203 1 0.16500 119244.000000
7146 14390 1 0.16500 119244.000000
7147 13203 1 0.16500 119244.000000
7147 15514 1 0.16500 119244.000000
7148 13203 1 0.16500 119244.000000
7148 15632 1 0.16500 119244.000000
7149 13204 1 0.16500 119244.000000
7149 14638 1 0.16500 119244.000000
7150 13204 1 0.16500 119244.000000
7150 16060 1 0.16500 119244.000000
7151 13204 1 0.16500 119244.000000
7151 13267 1 0.16500 119244.000000
7152 13205 1 0.16500 119244.000000
7152 14773 1 0.16500 119244.000000
7153 13729 1 0.16500 119244.000000
7153 22533 1 0.16500 119244.000000
7154 15986 1 0.16500 119244.000000
7154 22533 1 0.16500 119244.000000
7155 13206 1 0.16500 119244.000000
7155 15685 1 0.16500 119244.000000
7156 13206 1 0.16500 119244.000000
7156 14924 1 0.16500 119244.000000
7157 13206 1 0.16500 119244.000000
7157 15389 1 0.16500 119244.000000
7158 13207 1 0.16500 119244.000000
7158 14183 1 0.16500 119244.000000
7159 13207 1 0.16500 119244.000000
7159 13932 1 0.16500 119244.000000
7160 13207 1 0.16500 119244.000000
7160 15649 1 0.16500 119244.000000
7161 13207 1 0.16500 119244.000000
7161 14964 1 0.16500 119244.000000
7162 13208 1 0.16500 119244.000000
7162 13497 1 0.16500 119244.000000
7163 13208 1 0.16500 119244.000000
7163 15643 1 0.16500 119244.000000
7164 13209 1 0.16500 119244.000000
7164 15569 1 0.16500 119244.000000
7165 13209 1 0.16500 119244.000000
7165 14167 1 0.16500 119244.000000
7166 13209 1 0.16500 119244.000000
7166 14098 1 0.16500 119244.000000
7167 13210 1 0.16500 119244.000000
7167 14604 1 0.16500 119244.000000
7168 14320 1 0.16500 119244.000000
7168 22545 1 0.16500 119244.000000
7169 13465 1 0.16500 119244.000000
7169 22545 1 0.16500 119244.000000
7170 22545 1 0.16500 119244.000000
7170 24153 1 0.16500 119244.000000
7171 15134 1 0.16500 119244.000000
7171 16595 1 0.16500 119244.000000
7172 13211 1 0.16500 119244.000000
7172 15101 1 0.16500 119244.000000
7173 13211 1 0.16500 119244.000000
7173 13490 1 0.16500 119244.000000
7174 13211 1 0.16500 119244.000000
7174 15459 1 0.16500 119244.000000
7175 13212 1 0.16500 119244.000000
7175 16100 1 0.16500 119244.000000
7176 13212 1 0.16500 119244.000000
7176 14539 1 0.16500 119244.000000
7177 11690 1 0.16500 119244.000000
7177 13212 1 0.16500 119244.000000
7178 13213 1 0.16500 119244.000000
7178 13474 1 0.16500 119244.000000
7179 13213 1 0.16500 119244.000000
7179 15185 1 0.16500 119244.000000
7180 16609 1 0.16500 119244.000000
7180 23709 1 0.16500 119244.000000
7181 13214 1 0.16500 119244.000000
7181 13321 1 0.16500 119244.000000
7182 13214 1 0.16500 119244.000000
7182 13560 1 0.16500 119244.000000
7183 13215 1 0.16500 119244.000000
7183 15430 1 0.16500 119244.000000
7184 13216 1 0.16500 119244.000000
7184 14651 1 0.16500 119244.000000
7185 13216 1 0.16500 119244.000000
7185 13754 1 0.16500 119244.000000
7186 13217 1 0.16500 119244.000000
7186 13472 1 0.16500 119244.000000
7187 13217 1 0.16500 119244.000000
7187 15284 1 0.16500 119244.000000
7188 13217 1 0.16500 119244.000000
7188 13586 1 0.16500 119244.000000
7189 13217 1 0.16500 119244.000000
7189 13386 1 0.16500 119244.000000
7190 13218 1 0.16500 119244.000000
7190 15822 1 0.16500 119244.000000
7191 13218 1 0.16500 119244.000000
7191 13645 1 0.16500 119244.000000
7192 13218 1 0.16500 119244.000000
7192 15932 1 0.16500 119244.000000
7193 13218 1 0.16500 119244.000000
7193 13242 1 0.16500 119244.000000
7194 12750 1 0.16500 119244.000000
7194 22557 1 0.16500 119244.000000
7195 15433 1 0.16500 119244.000000
7195 22557 1 0.16500 119244.000000
7196 13219 1 0.16500 119244.000000
7196 14317 1 0.16500 119244.000000
7197 13219 1 0.16500 119244.000000
7197 15889 1 0.16500 119244.000000
7198 19209 1 0.16500 119244.000000
7198 22569 1 0.16500 119244.000000
7199 13220 1 0.16500 119244.000000
7199 15585 1 0.16500 119244.000000
7200 13220 1 0.16500 119244.000000
7200 23889 1 0.16500 119244.000000
7201 13221 1 0.16500 119244.000000
7201 13502 1 0.16500 119244.000000
7202 13221 1 0.16500 119244.000000
7202 14059 1 0.16500 119244.000000
7203 13222 1 0.16500 119244.000000
7203 15221 1 0.16500 119244.000000
7204 13222 1 0.16500 119244.000000
7204 14356 1 0.16500 119244.000000
7205 13223 1 0.16500 119244.000000
7205 14706 1 0.16500 119244.000000
7206 13223 1 0.16500 119244.000000
7206 14076 1 0.16500 119244.000000
7207 13224 1 0.16500 119244.000000
7207 15260 1 0.16500 119244.000000
7208 13224 1 0.16500 119244.000000
7208 13548 1 0.16500 119244.000000
7209 13225 1 0.16500 119244.000000
7209 22749 1 0.16500 119244.000000
7210 13227 1 0.16500 119244.000000
7210 15156 1 0.16500 119244.000000
7211 13227 1 0.16500 119244.000000
7211 15733 1 0.16500 119244.000000
7212 13227 1 0.16500 119244.000000
7212 13417 1 0.16500 119244.000000
7213 13228 1 0.16500 119244.000000
7213 13625 1 0.16500 119244.000000
7214 13229 1 0.16500 119244.000000
7214 13962 1 0.16500 119244.000000
7215 13229 1 0.16500 119244.000000
7215 13870 1 0.16500 119244.000000
7216 13962 1 0.16500 119244.000000
7216 15938 1 0.16500 119244.000000
7217 22581 1 0.16500 119244.000000
7217 23109 1 0.16500 119244.000000
7218 13230 1 0.16500 119244.000000
7218 23337 1 0.16500 119244.000000
7219 13230 1 0.16500 119244.000000
7219 23133 1 0.16500 119244.000000
7220 13230 1 0.16500 119244.000000
7220 24297 1 0.16500 119244.000000
7221 13230 1 0.16500 119244.000000
7221 15335 1 0.16500 119244.000000
7222 15532 1 0.16500 119244.000000
7222 22593 1 0.16500 119244.000000
7223 13257 1 0.16500 119244.000000
7223 22593 1 0.16500 119244.000000
7224 13924 1 0.16500 119244.000000
7224 13997 1 0.16500 119244.000000
7225 13231 1 0.16500 119244.000000
7225 13997 1 0.16500 119244.000000
7226 13231 1 0.16500 119244.000000
7226 16025 1 0.16500 119244.000000
7227 13232 1 0.16500 119244.000000
7227 14125 1 0.16500 119244.000000
7228 13233 1 0.16500 119244.000000
7228 15549 1 0.16500 119244.000000
7229 13233 1 0.16500 119244.000000
7229 15911 1 0.16500 119244.000000
7230 13233 1 0.16500 119244.000000
7230 14497 1 0.16500 119244.000000
7231 13233 1 0.16500 119244.000000
7231 13269 1 0.16500 119244.000000
7232 13234 1 0.16500 119244.000000
7232 24018 1 0.16500 119244.000000
7233 12942 1 0.16500 119244.000000
7233 13234 1 0.16500 119244.000000
7234 13234 1 0.16500 119244.000000
7234 14273 1 0.16500 119244.000000
7235 13235 1 0.16500 119244.000000
7235 14135 1 0.16500 119244.000000
7236 13235 1 0.16500 119244.000000
7236 14498 1 0.16500 119244.000000
7237 14635 1 0.16500 119244.000000
7237 15613 1 0.16500 119244.000000
7238 13236 1 0.16500 119244.000000
7238 14426 1 0.16500 119244.000000
7239 13236 1 0.16500 119244.000000
7239 13533 1 0.16500 119244.000000
7240 15743 1 0.16500 119244.000000
7240 16146 1 0.16500 119244.000000
7241 13237 1 0.16500 119244.000000
7241 15743 1 0.16500 119244.000000
7242 13237 1 0.16500 119244.000000
7242 16176 1 0.16500 119244.000000
7243 13238 1 0.16500 119244.000000
7243 14295 1 0.16500 119244.000000
7244 13238 1 0.16500 119244.000000
7244 15867 1 0.16500 119244.000000
7245 13239 1 0.16500 119244.000000
7245 15946 1 0.16500 119244.000000
7246 13239 1 0.16500 119244.000000
7246 14094 1 0.16500 119244.000000
7247 13240 1 0.16500 119244.000000
7247 13293 1 0.16500 119244.000000
7248 13240 1 0.16500 119244.000000
7248 14878 1 0.16500 119244.000000
7249 13240 1 0.16500 119244.000000
7249 13316 1 0.16500 119244.000000
7250 13240 1 0.16500 119244.000000
7250 24051 1 0.16500 119244.000000
7251 13241 1 0.16500 119244.000000
7251 13821 1 0.16500 119244.000000
7252 13613 1 0.16500 119244.000000
7252 13821 1 0.16500 119244.000000
7253 13242 1 0.16500 119244.000000
7253 13310 1 0.16500 119244.000000
7254 13243 1 0.16500 119244.000000
7254 13596 1 0.16500 119244.000000
7255 13244 1 0.16500 119244.000000
7255 13722 1 0.16500 119244.000000
7256 13244 1 0.16500 119244.000000
7256 13440 1 0.16500 119244.000000
7257 22605 1 0.16500 119244.000000
7257 24447 1 0.16500 119244.000000
7258 13245 1 0.16500 119244.000000
7258 16104 1 0.16500 119244.000000
7259 13245 1 0.16500 119244.000000
7259 15483 1 0.16500 119244.000000
7260 13246 1 0.16500 119244.000000
7260 14367 1 0.16500 119244.000000
7261 13246 1 0.16500 119244.000000
7261 15054 1 0.16500 119244.000000
7262 13247 1 0.16500 119244.000000
7262 14464 1 0.16500 119244.000000
7263 13247 1 0.16500 119244.000000
7263 15635 1 0.16500 119244.000000
7264 13247 1 0.16500 119244.000000
7264 24399 1 0.16500 119244.000000
7265 11845 1 0.16500 119244.000000
7265 13248 1 0.16500 119244.000000
7266 13248 1 0.16500 119244.000000
7266 13998 1 0.16500 119244.000000
7267 13249 1 0.16500 119244.000000
7267 14810 1 0.16500 119244.000000
7268 13256 1 0.16500 119244.000000
7268 22617 1 0.16500 119244.000000
7269 14050 1 0.16500 119244.000000
7269 14900 1 0.16500 119244.000000
7270 13251 1 0.16500 119244.000000
7270 14900 1 0.16500 119244.000000
7271 13252 1 0.16500 119244.000000
7271 13335 1 0.16500 119244.000000
7272 13252 1 0.16500 119244.000000
7272 15030 1 0.16500 119244.000000
7273 13252 1 0.16500 119244.000000
7273 14282 1 0.16500 119244.000000
7274 13252 1 0.16500 119244.000000
7274 15096 1 0.16500 119244.000000
7275 13253 1 0.16500 119244.000000
7275 14072 1 0.16500 119244.000000
7276 13253 1 0.16500 119244.000000
7276 15403 1 0.16500 119244.000000
7277 14201 1 0.16500 119244.000000
7277 15696 1 0.16500 119244.000000
7278 13254 1 0.16500 119244.000000
7278 23904 1 0.16500 119244.000000
7279 13254 1 0.16500 119244.000000
7279 15696 1 0.16500 119244.000000
7280 13254 1 0.16500 119244.000000
7280 15941 1 0.16500 119244.000000
7281 13255 1 0.16500 119244.000000
7281 15091 1 0.16500 119244.000000
7282 14744 1 0.16500 119244.000000
7282 15091 1 0.16500 119244.000000
7283 12853 1 0.16500 119244.000000
7283 13276 1 0.16500 119244.000000
7284 13256 1 0.16500 119244.000000
7284 13283 1 0.16500 119244.000000
7285 13256 1 0.16500 119244.000000
7285 24198 1 0.16500 119244.000000
7286 13256 1 0.16500 119244.000000
7286 17197 1 0.16500 119244.000000
7287 13257 1 0.16500 119244.000000
7287 24333 1 0.16500 119244.000000
7288 23517 1 0.16500 119244.000000
7288 24333 1 0.16500 119244.000000
7289 13258 1 0.16500 119244.000000
7289 15373 1 0.16500 119244.000000
7290 13258 1 0.16500 119244.000000
7290 14813 1 0.16500 119244.000000
7291 15373 1 0.16500 119244.000000
7291 24444 1 0.16500 119244.000000
7292 13259 1 0.16500 119244.000000
7292 14142 1 0.16500 119244.000000
7293 13259 1 0.16500 119244.000000
7293 15204 1 0.16500 119244.000000
7294 13259 1 0.16500 119244.000000
7294 15719 1 0.16500 119244.000000
7295 13260 1 0.16500 119244.000000
7295 14230 1 0.16500 119244.000000
7296 13260 1 0.16500 119244.000000
7296 14432 1 0.16500 119244.000000
7297 13260 1 0.16500 119244.000000
7297 13859 1 0.16500 119244.000000
7298 13262 1 0.16500 119244.000000
7298 13772 1 0.16500 119244.000000
7299 13262 1 0.16500 119244.000000
7299 14512 1 0.16500 119244.000000
7300 13262 1 0.16500 119244.000000
7300 15799 1 0.16500 119244.000000
7301 13263 1 0.16500 119244.000000
7301 23889 1 0.16500 119244.000000
7302 13263 1 0.16500 119244.000000
7302 17155 1 0.16500 119244.000000
7303 13264 1 0.16500 119244.000000
7303 14901 1 0.16500 119244.000000
7304 13264 1 0.16500 119244.000000
7304 16146 1 0.16500 119244.000000
7305 13264 1 0.16500 119244.000000
7305 14716 1 0.16500 119244.000000
7306 13265 1 0.16500 119244.000000
7306 14984 1 0.16500 119244.000000
7307 13265 1 0.16500 119244.000000
7307 13632 1 0.16500 119244.000000
7308 12928 1 0.16500 119244.000000
7308 13265 1 0.16500 119244.000000
7309 13266 1 0.16500 119244.000000
7309 24342 1 0.16500 119244.000000
7310 13266 1 0.16500 119244.000000
7310 13320 1 0.16500 119244.000000
7311 13266 1 0.16500 119244.000000
7311 24704 1 0.16500 119244.000000
7312 13266 1 0.16500 119244.000000
7312 15089 1 0.16500 119244.000000
7313 13267 1 0.16500 119244.000000
7313 14863 1 0.16500 119244.000000
7314 13267 1 0.16500 119244.000000
7314 14873 1 0.16500 119244.000000
7315 13268 1 0.16500 119244.000000
7315 14556 1 0.16500 119244.000000
7316 13268 1 0.16500 119244.000000
7316 15012 1 0.16500 119244.000000
7317 13270 1 0.16500 119244.000000
7317 13658 1 0.16500 119244.000000
7318 13270 1 0.16500 119244.000000
7318 15671 1 0.16500 119244.000000
7319 11543 1 0.16500 119244.000000
7319 15716 1 0.16500 119244.000000
7320 11543 1 0.16500 119244.000000
7320 14178 1 0.16500 119244.000000
7321 13272 1 0.16500 119244.000000
7321 13629 1 0.16500 119244.000000
7322 13272 1 0.16500 119244.000000
7322 16032 1 0.16500 119244.000000
7323 13273 1 0.16500 119244.000000
7323 15196 1 0.16500 119244.000000
7324 13273 1 0.16500 119244.000000
7324 15188 1 0.16500 119244.000000
7325 13951 1 0.16500 119244.000000
7325 15196 1 0.16500 119244.000000
7326 13464 1 0.16500 119244.000000
7326 15043 1 0.16500 119244.000000
7327 13275 1 0.16500 119244.000000
7327 14194 1 0.16500 119244.000000
7328 13275 1 0.16500 119244.000000
7328 13464 1 0.16500 119244.000000
7329 13276 1 0.16500 119244.000000
7329 15283 1 0.16500 119244.000000
7330 13277 1 0.16500 119244.000000
7330 14680 1 0.16500 119244.000000
7331 13278 1 0.16500 119244.000000
7331 16206 1 0.16500 119244.000000
7332 13278 1 0.16500 119244.000000
7332 14257 1 0.16500 119244.000000
7333 13278 1 0.16500 119244.000000
7333 14156 1 0.16500 119244.000000
7334 13279 1 0.16500 119244.000000
7334 14083 1 0.16500 119244.000000
7335 13279 1 0.16500 119244.000000
7335 15660 1 0.16500 119244.000000
7336 13279 1 0.16500 119244.000000
7336 16051 1 0.16500 119244.000000
7337 13279 1 0.16500 119244.000000
7337 15087 1 0.16500 119244.000000
7338 13280 1 0.16500 119244.000000
7338 15929 1 0.16500 119244.000000
7339 13280 1 0.16500 119244.000000
7339 14181 1 0.16500 119244.000000
7340 13280 1 0.16500 119244.000000
7340 14737 1 0.16500 119244.000000
7341 16149 1 0.16500 119244.000000
7341 22701 1 0.16500 119244.000000
7342 13281 1 0.16500 119244.000000
7342 22701 1 0.16500 119244.000000
7343 13281 1 0.16500 119244.000000
7343 24321 1 0.16500 119244.000000
7344 13281 1 0.16500 119244.000000
7344 15137 1 0.16500 119244.000000
7345 13282 1 0.16500 119244.000000
7345 15595 1 0.16500 119244.000000
7346 13282 1 0.16500 119244.000000
7346 14414 1 0.16500 119244.000000
7347 13282 1 0.16500 119244.000000
7347 16109 1 0.16500 119244.000000
7348 13283 1 0.16500 119244.000000
7348 16172 1 0.16500 119244.000000
7349 13283 1 0.16500 119244.000000
7349 16122 1 0.16500 119244.000000
7350 13283 1 0.16500 119244.000000
7350 15686 1 0.16500 119244.000000
7351 13284 1 0.16500 119244.000000
7351 13387 1 0.16500 119244.000000
7352 13284 1 0.16500 119244.000000
7352 14140 1 0.16500 119244.000000
7353 13284 1 0.16500 119244.000000
7353 16152 1 0.16500 119244.000000
7354 13285 1 0.16500 119244.000000
7354 14840 1 0.16500 119244.000000
7355 13285 1 0.16500 119244.000000
7355 15345 1 0.16500 119244.000000
7356 13285 1 0.16500 119244.000000
7356 14011 1 0.16500 119244.000000
7357 13286 1 0.16500 119244.000000
7357 15801 1 0.16500 119244.000000
7358 13061 1 0.16500 119244.000000
7358 14495 1 0.16500 119244.000000
7359 13061 1 0.16500 119244.000000
7359 13286 1 0.16500 119244.000000
7360 13287 1 0.16500 119244.000000
7360 15975 1 0.16500 119244.000000
7361 13287 1 0.16500 119244.000000
7361 14507 1 0.16500 119244.000000
7362 13287 1 0.16500 119244.000000
7362 15682 1 0.16500 119244.000000
7363 13288 1 0.16500 119244.000000
7363 16749 1 0.16500 119244.000000
7364 13288 1 0.16500 119244.000000
7364 22989 1 0.16500 119244.000000
7365 13288 1 0.16500 119244.000000
7365 24099 1 0.16500 119244.000000
7366 13289 1 0.16500 119244.000000
7366 15245 1 0.16500 119244.000000
7367 13290 1 0.16500 119244.000000
7367 13459 1 0.16500 119244.000000
7368 11263 1 0.16500 119244.000000
7368 15966 1 0.16500 119244.000000
7369 13969 1 0.16500 119244.000000
7369 22641 1 0.16500 119244.000000
7370 13291 1 0.16500 119244.000000
7370 13676 1 0.16500 119244.000000
7371 11494 1 0.16500 119244.000000
7371 14245 1 0.16500 119244.000000
7372 13291 1 0.16500 119244.000000
7372 15567 1 0.16500 119244.000000
7373 11507 1 0.16500 119244.000000
7373 13069 1 0.16500 119244.000000
7374 13292 1 0.16500 119244.000000
7374 14358 1 0.16500 119244.000000
7375 14038 1 0.16500 119244.000000
7375 22653 1 0.16500 119244.000000
7376 22653 1 0.16500 119244.000000
7376 24231 1 0.16500 119244.000000
7377 13294 1 0.16500 119244.000000
7377 15154 1 0.16500 119244.000000
7378 13294 1 0.16500 119244.000000
7378 16081 1 0.16500 119244.000000
7379 13294 1 0.16500 119244.000000
7379 13641 1 0.16500 119244.000000
7380 13294 1 0.16500 119244.000000
7380 14950 1 0.16500 119244.000000
7381 13295 1 0.16500 119244.000000
7381 14053 1 0.16500 119244.000000
7382 13295 1 0.16500 119244.000000
7382 16052 1 0.16500 119244.000000
7383 13296 1 0.16500 119244.000000
7383 15269 1 0.16500 119244.000000
7384 13298 1 0.16500 119244.000000
7384 14245 1 0.16500 119244.000000
7385 13298 1 0.16500 119244.000000
7385 14941 1 0.16500 119244.000000
7386 13298 1 0.16500 119244.000000
7386 13486 1 0.16500 119244.000000
7387 13298 1 0.16500 119244.000000
7387 15334 1 0.16500 119244.000000
7388 13299 1 0.16500 119244.000000
7388 15760 1 0.16500 119244.000000
7389 13299 1 0.16500 119244.000000
7389 13615 1 0.16500 119244.000000
7390 13300 1 0.16500 119244.000000
7390 15600 1 0.16500 119244.000000
7391 13300 1 0.16500 119244.000000
7391 14698 1 0.16500 119244.000000
7392 13301 1 0.16500 119244.000000
7392 14157 1 0.16500 119244.000000
7393 13301 1 0.16500 119244.000000
7393 14228 1 0.16500 119244.000000
7394 13302 1 0.16500 119244.000000
7394 13861 1 0.16500 119244.000000
7395 13302 1 0.16500 119244.000000
7395 14582 1 0.16500 119244.000000
7396 13302 1 0.16500 119244.000000
7396 15332 1 0.16500 119244.000000
7397 13303 1 0.16500 119244.000000
7397 13760 1 0.16500 119244.000000
7398 13303 1 0.16500 119244.000000
7398 13406 1 0.16500 119244.000000
7399 16665 1 0.16500 119244.000000
7399 23898 1 0.16500 119244.000000
7400 16175 1 0.16500 119244.000000
7400 16665 1 0.16500 119244.000000
7401 13304 1 0.16500 119244.000000
7401 14489 1 0.16500 119244.000000
7402 13304 1 0.16500 119244.000000
7402 13952 1 0.16500 119244.000000
7403 13304 1 0.16500 119244.000000
7403 13374 1 0.16500 119244.000000
7404 13304 1 0.16500 119244.000000
7404 15203 1 0.16500 119244.000000
7405 13305 1 0.16500 119244.000000
7405 15783 1 0.16500 119244.000000
7406 13305 1 0.16500 119244.000000
7406 13857 1 0.16500 119244.000000
7407 13305 1 0.16500 119244.000000
7407 15491 1 0.16500 119244.000000
7408 13306 1 0.16500 119244.000000
7408 15409 1 0.16500 119244.000000
7409 12212 1 0.16500 119244.000000
7409 13314 1 0.16500 119244.000000
7410 14207 1 0.16500 119244.000000
7410 15409 1 0.16500 119244.000000
7411 13307 1 0.16500 119244.000000
7411 15705 1 0.16500 119244.000000
7412 13307 1 0.16500 119244.000000
7412 13927 1 0.16500 119244.000000
7413 13307 1 0.16500 119244.000000
7413 14554 1 0.16500 119244.000000
7414 13308 1 0.16500 119244.000000
7414 13907 1 0.16500 119244.000000
7415 13309 1 0.16500 119244.000000
7415 14172 1 0.16500 119244.000000
7416 13309 1 0.16500 119244.000000
7416 14435 1 0.16500 119244.000000
7417 13310 1 0.16500 119244.000000
7417 15697 1 0.16500 119244.000000
7418 12636 1 0.16500 119244.000000
7418 13311 1 0.16500 119244.000000
7419 13311 1 0.16500 119244.000000
7419 13603 1 0.16500 119244.000000
7420 13311 1 0.16500 119244.000000
7420 14082 1 0.16500 119244.000000
7421 13312 1 0.16500 119244.000000
7421 15271 1 0.16500 119244.000000
7422 13312 1 0.16500 119244.000000
7422 13576 1 0.16500 119244.000000
7423 13313 1 0.16500 119244.000000
7423 15543 1 0.16500 119244.000000
7424 13314 1 0.16500 119244.000000
7424 14720 1 0.16500 119244.000000
7425 13314 1 0.16500 119244.000000
7425 16166 1 0.16500 119244.000000
7426 13314 1 0.16500 119244.000000
7426 13523 1 0.16500 119244.000000
7427 13315 1 0.16500 119244.000000
7427 18275 1 0.16500 119244.000000
7428 13315 1 0.16500 119244.000000
7428 13736 1 0.16500 119244.000000
7429 13315 1 0.16500 119244.000000
7429 15160 1 0.16500 119244.000000
7430 13316 1 0.16500 119244.000000
7430 15079 1 0.16500 119244.000000
7431 11939 1 0.16500 119244.000000
7431 15026 1 0.16500 119244.000000
7432 13316 1 0.16500 119244.000000
7432 15026 1 0.16500 119244.000000
7433 13317 1 0.16500 119244.000000
7433 23757 1 0.16500 119244.000000
7434 13318 1 0.16500 119244.000000
7434 15153 1 0.16500 119244.000000
7435 13318 1 0.16500 119244.000000
7435 15511 1 0.16500 119244.000000
7436 13318 1 0.16500 119244.000000
7436 13351 1 0.16500 119244.000000
7437 13319 1 0.16500 119244.000000
7437 15241 1 0.16500 119244.000000
7438 13319 1 0.16500 119244.000000
7438 14871 1 0.16500 119244.000000
7439 13319 1 0.16500 119244.000000
7439 16105 1 0.16500 119244.000000
7440 13320 1 0.16500 119244.000000
7440 23265 1 0.16500 119244.000000
7441 13320 1 0.16500 119244.000000
7441 23373 1 0.16500 119244.000000
7442 13321 1 0.16500 119244.000000
7442 15905 1 0.16500 119244.000000
7443 13322 1 0.16500 119244.000000
7443 14799 1 0.16500 119244.000000
7444 13322 1 0.16500 119244.000000
7444 14283 1 0.16500 119244.000000
7445 13322 1 0.16500 119244.000000
7445 14250 1 0.16500 119244.000000
7446 13062 1 0.16500 119244.000000
7446 14639 1 0.16500 119244.000000
7447 13324 1 0.16500 119244.000000
7447 16115 1 0.16500 119244.000000
7448 13324 1 0.16500 119244.000000
7448 14181 1 0.16500 119244.000000
7449 13325 1 0.16500 119244.000000
7449 23481 1 0.16500 119244.000000
7450 13325 1 0.16500 119244.000000
7450 13928 1 0.16500 119244.000000
7451 12457 1 0.16500 119244.000000
7451 13701 1 0.16500 119244.000000
7452 13326 1 0.16500 119244.000000
7452 13598 1 0.16500 119244.000000
7453 13326 1 0.16500 119244.000000
7453 13468 1 0.16500 119244.000000
7454 13327 1 0.16500 119244.000000
7454 16201 1 0.16500 119244.000000
7455 13327 1 0.16500 119244.000000
7455 14955 1 0.16500 119244.000000
7456 13327 1 0.16500 119244.000000
7456 14270 1 0.16500 119244.000000
7457 13328 1 0.16500 119244.000000
7457 24276 1 0.16500 119244.000000
7458 13328 1 0.16500 119244.000000
7458 15425 1 0.16500 119244.000000
7459 13329 1 0.16500 119244.000000
7459 15309 1 0.16500 119244.000000
7460 13329 1 0.16500 119244.000000
7460 14345 1 0.16500 119244.000000
7461 13329 1 0.16500 119244.000000
7461 15416 1 0.16500 119244.000000
7462 13330 1 0.16500 119244.000000
7462 14432 1 0.16500 119244.000000
7463 13330 1 0.16500 119244.000000
7463 15948 1 0.16500 119244.000000
7464 13331 1 0.16500 119244.000000
7464 15867 1 0.16500 119244.000000
7465 13331 1 0.16500 119244.000000
7465 13710 1 0.16500 119244.000000
7466 13331 1 0.16500 119244.000000
7466 14856 1 0.16500 119244.000000
7467 13332 1 0.16500 119244.000000
7467 13805 1 0.16500 119244.000000
7468 13332 1 0.16500 119244.000000
7468 14281 1 0.16500 119244.000000
7469 13222 1 0.16500 119244.000000
7469 13333 1 0.16500 119244.000000
7470 13932 1 0.16500 119244.000000
7470 16693 1 0.16500 119244.000000
7471 13334 1 0.16500 119244.000000
7471 15844 1 0.16500 119244.000000
7472 15707 1 0.16500 119244.000000
7472 22677 1 0.16500 119244.000000
7473 13335 1 0.16500 119244.000000
7473 15701 1 0.16500 119244.000000
7474 13336 1 0.16500 119244.000000
7474 14480 1 0.16500 119244.000000
7475 13336 1 0.16500 119244.000000
7475 14846 1 0.16500 119244.000000
7476 13336 1 0.16500 119244.000000
7476 14708 1 0.16500 119244.000000
7477 13012 1 0.16500 119244.000000
7477 13336 1 0.16500 119244.000000
7478 13337 1 0.16500 119244.000000
7478 14887 1 0.16500 119244.000000
7479 13338 1 0.16500 119244.000000
7479 13433 1 0.16500 119244.000000
7480 13338 1 0.16500 119244.000000
7480 13770 1 0.16500 119244.000000
7481 13339 1 0.16500 119244.000000
7481 14104 1 0.16500 119244.000000
7482 13339 1 0.16500 119244.000000
7482 15227 1 0.16500 119244.000000
7483 13339 1 0.16500 119244.000000
7483 13371 1 0.16500 119244.000000
7484 13340 1 0.16500 119244.000000
7484 14883 1 0.16500 119244.000000
7485 14381 1 0.16500 119244.000000
7485 22689 1 0.16500 119244.000000
7486 15602 1 0.16500 119244.000000
7486 22689 1 0.16500 119244.000000
7487 13341 1 0.16500 119244.000000
7487 13961 1 0.16500 119244.000000
7488 13341 1 0.16500 119244.000000
7488 14951 1 0.16500 119244.000000
7489 13341 1 0.16500 119244.000000
7489 14509 1 0.16500 119244.000000
7490 13342 1 0.16500 119244.000000
7490 23898 1 0.16500 119244.000000
7491 13342 1 0.16500 119244.000000
7491 13435 1 0.16500 119244.000000
7492 13342 1 0.16500 119244.000000
7492 13466 1 0.16500 119244.000000
7493 13343 1 0.16500 119244.000000
7493 24201 1 0.16500 119244.000000
7494 13343 1 0.16500 119244.000000
7494 15037 1 0.16500 119244.000000
7495 13344 1 0.16500 119244.000000
7495 14095 1 0.16500 119244.000000
7496 13344 1 0.16500 119244.000000
7496 13899 1 0.16500 119244.000000
7497 13361 1 0.16500 119244.000000
7497 22713 1 0.16500 119244.000000
7498 13345 1 0.16500 119244.000000
7498 14060 1 0.16500 119244.000000
7499 13345 1 0.16500 119244.000000
7499 15268 1 0.16500 119244.000000
7500 13345 1 0.16500 119244.000000
7500 13644 1 0.16500 119244.000000
7501 13345 1 0.16500 119244.000000
7501 13845 1 0.16500 119244.000000
7502 13346 1 0.16500 119244.000000
7502 14996 1 0.16500 119244.000000
7503 13346 1 0.16500 119244.000000
7503 14012 1 0.16500 119244.000000
7504 13346 1 0.16500 119244.000000
7504 14006 1 0.16500 119244.000000
7505 13347 1 0.16500 119244.000000
7505 15489 1 0.16500 119244.000000
7506 13124 1 0.16500 119244.000000
7506 13347 1 0.16500 119244.000000
7507 14243 1 0.16500 119244.000000
7507 14798 1 0.16500 119244.000000
7508 13348 1 0.16500 119244.000000
7508 14243 1 0.16500 119244.000000
7509 13348 1 0.16500 119244.000000
7509 24039 1 0.16500 119244.000000
7510 16707 1 0.16500 119244.000000
7510 23493 1 0.16500 119244.000000
7511 13349 1 0.16500 119244.000000
7511 13883 1 0.16500 119244.000000
7512 11912 1 0.16500 119244.000000
7512 13349 1 0.16500 119244.000000
7513 13884 1 0.16500 119244.000000
7513 15609 1 0.16500 119244.000000
7514 13565 1 0.16500 119244.000000
7514 13884 1 0.16500 119244.000000
7515 13350 1 0.16500 119244.000000
7515 14653 1 0.16500 119244.000000
7516 13351 1 0.16500 119244.000000
7516 13532 1 0.16500 119244.000000
7517 13351 1 0.16500 119244.000000
7517 15604 1 0.16500 119244.000000
7518 13352 1 0.16500 119244.000000
7518 14060 1 0.16500 119244.000000
7519 13352 1 0.16500 119244.000000
7519 15064 1 0.16500 119244.000000
7520 13353 1 0.16500 119244.000000
7520 15143 1 0.16500 119244.000000
7521 13353 1 0.16500 119244.000000
7521 15101 1 0.16500 119244.000000
7522 15101 1 0.16500 119244.000000
7522 15907 1 0.16500 119244.000000
7523 13354 1 0.16500 119244.000000
7523 16047 1 0.16500 119244.000000
7524 13354 1 0.16500 119244.000000
7524 14528 1 0.16500 119244.000000
7525 13354 1 0.16500 119244.000000
7525 13769 1 0.16500 119244.000000
7526 13355 1 0.16500 119244.000000
7526 15797 1 0.16500 119244.000000
7527 13355 1 0.16500 119244.000000
7527 14739 1 0.16500 119244.000000
7528 12739 1 0.16500 119244.000000
7528 16721 1 0.16500 119244.000000
7529 16721 1 0.16500 119244.000000
7529 22977 1 0.16500 119244.000000
7530 13356 1 0.16500 119244.000000
7530 14547 1 0.16500 119244.000000
7531 13356 1 0.16500 119244.000000
7531 15924 1 0.16500 119244.000000
7532 13356 1 0.16500 119244.000000
7532 15078 1 0.16500 119244.000000
7533 13357 1 0.16500 119244.000000
7533 13604 1 0.16500 119244.000000
7534 13357 1 0.16500 119244.000000
7534 14356 1 0.16500 119244.000000
7535 13358 1 0.16500 119244.000000
7535 16127 1 0.16500 119244.000000
7536 13359 1 0.16500 119244.000000
7536 15832 1 0.16500 119244.000000
7537 13359 1 0.16500 119244.000000
7537 16059 1 0.16500 119244.000000
7538 13360 1 0.16500 119244.000000
7538 15183 1 0.16500 119244.000000
7539 13361 1 0.16500 119244.000000
7539 16018 1 0.16500 119244.000000
7540 13361 1 0.16500 119244.000000
7540 14946 1 0.16500 119244.000000
7541 13362 1 0.16500 119244.000000
7541 15648 1 0.16500 119244.000000
7542 13362 1 0.16500 119244.000000
7542 15240 1 0.16500 119244.000000
7543 13362 1 0.16500 119244.000000
7543 13930 1 0.16500 119244.000000
7544 13363 1 0.16500 119244.000000
7544 15461 1 0.16500 119244.000000
7545 13364 1 0.16500 119244.000000
7545 15617 1 0.16500 119244.000000
7546 13364 1 0.16500 119244.000000
7546 24024 1 0.16500 119244.000000
7547 13366 1 0.16500 119244.000000
7547 13524 1 0.16500 119244.000000
7548 13367 1 0.16500 119244.000000
7548 13926 1 0.16500 119244.000000
7549 13367 1 0.16500 119244.000000
7549 13603 1 0.16500 119244.000000
7550 13367 1 0.16500 119244.000000
7550 14940 1 0.16500 119244.000000
7551 13368 1 0.16500 119244.000000
7551 24744 1 0.16500 119244.000000
7552 13368 1 0.16500 119244.000000
7552 16192 1 0.16500 119244.000000
7553 13369 1 0.16500 119244.000000
7553 14571 1 0.16500 119244.000000
7554 13369 1 0.16500 119244.000000
7554 16163 1 0.16500 119244.000000
7555 13370 1 0.16500 119244.000000
7555 13917 1 0.16500 119244.000000
7556 13371 1 0.16500 119244.000000
7556 14663 1 0.16500 119244.000000
7557 13371 1 0.16500 119244.000000
7557 14490 1 0.16500 119244.000000
7558 13371 1 0.16500 119244.000000
7558 13984 1 0.16500 119244.000000
7559 13627 1 0.16500 119244.000000
7559 16735 1 0.16500 119244.000000
7560 13372 1 0.16500 119244.000000
7560 15211 1 0.16500 119244.000000
7561 13372 1 0.16500 119244.000000
7561 16088 1 0.16500 119244.000000
7562 13372 1 0.16500 119244.000000
7562 14431 1 0.16500 119244.000000
7563 13372 1 0.16500 119244.000000
7563 13575 1 0.16500 119244.000000
7564 13373 1 0.16500 119244.000000
7564 14833 1 0.16500 119244.000000
7565 13373 1 0.16500 119244.000000
7565 13482 1 0.16500 119244.000000
7566 13374 1 0.16500 119244.000000
7566 15563 1 0.16500 119244.000000
7567 13375 1 0.16500 119244.000000
7567 23865 1 0.16500 119244.000000
7568 15898 1 0.16500 119244.000000
7568 23865 1 0.16500 119244.000000
7569 13375 1 0.16500 119244.000000
7569 13741 1 0.16500 119244.000000
7570 13882 1 0.16500 119244.000000
7570 14346 1 0.16500 119244.000000
7571 13376 1 0.16500 119244.000000
7571 13882 1 0.16500 119244.000000
7572 13376 1 0.16500 119244.000000
7572 14151 1 0.16500 119244.000000
7573 13377 1 0.16500 119244.000000
7573 14290 1 0.16500 119244.000000
7574 13377 1 0.16500 119244.000000
7574 14979 1 0.16500 119244.000000
7575 13377 1 0.16500 119244.000000
7575 15637 1 0.16500 119244.000000
7576 13380 1 0.16500 119244.000000
7576 13972 1 0.16500 119244.000000
7577 13380 1 0.16500 119244.000000
7577 15164 1 0.16500 119244.000000
7578 13381 1 0.16500 119244.000000
7578 14609 1 0.16500 119244.000000
7579 13382 1 0.16500 119244.000000
7579 14409 1 0.16500 119244.000000
7580 13382 1 0.16500 119244.000000
7580 16861 1 0.16500 119244.000000
7581 13382 1 0.16500 119244.000000
7581 14922 1 0.16500 119244.000000
7582 13383 1 0.16500 119244.000000
7582 14860 1 0.16500 119244.000000
7583 13384 1 0.16500 119244.000000
7583 15979 1 0.16500 119244.000000
7584 13385 1 0.16500 119244.000000
7584 13984 1 0.16500 119244.000000
7585 13385 1 0.16500 119244.000000
7585 14805 1 0.16500 119244.000000
7586 13386 1 0.16500 119244.000000
7586 15703 1 0.16500 119244.000000
7587 13386 1 0.16500 119244.000000
7587 16058 1 0.16500 119244.000000
7588 13387 1 0.16500 119244.000000
7588 15413 1 0.16500 119244.000000
7589 13387 1 0.16500 119244.000000
7589 13834 1 0.16500 119244.000000
7590 13387 1 0.16500 119244.000000
7590 13483 1 0.16500 119244.000000
7591 13388 1 0.16500 119244.000000
7591 14282 1 0.16500 119244.000000
7592 13388 1 0.16500 119244.000000
7592 15924 1 0.16500 119244.000000
7593 13388 1 0.16500 119244.000000
7593 15183 1 0.16500 119244.000000
7594 13389 1 0.16500 119244.000000
7594 14771 1 0.16500 119244.000000
7595 13389 1 0.16500 119244.000000
7595 14287 1 0.16500 119244.000000
7596 13389 1 0.16500 119244.000000
7596 14423 1 0.16500 119244.000000
7597 13390 1 0.16500 119244.000000
7597 13599 1 0.16500 119244.000000
7598 13390 1 0.16500 119244.000000
7598 24779 1 0.16500 119244.000000
7599 13391 1 0.16500 119244.000000
7599 15617 1 0.16500 119244.000000
7600 13391 1 0.16500 119244.000000
7600 13742 1 0.16500 119244.000000
7601 13392 1 0.16500 119244.000000
7601 13396 1 0.16500 119244.000000
7602 13392 1 0.16500 119244.000000
7602 15209 1 0.16500 119244.000000
7603 13867 1 0.16500 119244.000000
7603 14867 1 0.16500 119244.000000
7604 13393 1 0.16500 119244.000000
7604 14800 1 0.16500 119244.000000
7605 13393 1 0.16500 119244.000000
7605 14867 1 0.16500 119244.000000
7606 13393 1 0.16500 119244.000000
7606 14694 1 0.16500 119244.000000
7607 13394 1 0.16500 119244.000000
7607 15443 1 0.16500 119244.000000
7608 13395 1 0.16500 119244.000000
7608 14159 1 0.16500 119244.000000
7609 13395 1 0.16500 119244.000000
7609 14864 1 0.16500 119244.000000
7610 13396 1 0.16500 119244.000000
7610 15117 1 0.16500 119244.000000
7611 13397 1 0.16500 119244.000000
7611 13739 1 0.16500 119244.000000
7612 13850 1 0.16500 119244.000000
7612 24345 1 0.16500 119244.000000
7613 13398 1 0.16500 119244.000000
7613 24345 1 0.16500 119244.000000
7614 13398 1 0.16500 119244.000000
7614 21633 1 0.16500 119244.000000
7615 13399 1 0.16500 119244.000000
7615 15503 1 0.16500 119244.000000
7616 13399 1 0.16500 119244.000000
7616 16187 1 0.16500 119244.000000
7617 13399 1 0.16500 119244.000000
7617 14687 1 0.16500 119244.000000
7618 13401 1 0.16500 119244.000000
7618 13761 1 0.16500 119244.000000
7619 13401 1 0.16500 119244.000000
7619 13651 1 0.16500 119244.000000
7620 13401 1 0.16500 119244.000000
7620 14274 1 0.16500 119244.000000
7621 13402 1 0.16500 119244.000000
7621 15931 1 0.16500 119244.000000
7622 13402 1 0.16500 119244.000000
7622 14227 1 0.16500 119244.000000
7623 13402 1 0.16500 119244.000000
7623 14851 1 0.16500 119244.000000
7624 22737 1 0.16500 119244.000000
7624 23994 1 0.16500 119244.000000
7625 17421 1 0.16500 119244.000000
7625 22737 1 0.16500 119244.000000
7626 14534 1 0.16500 119244.000000
7626 22737 1 0.16500 119244.000000
7627 22749 1 0.16500 119244.000000
7627 24603 1 0.16500 119244.000000
7628 14401 1 0.16500 119244.000000
7628 22749 1 0.16500 119244.000000
7629 13403 1 0.16500 119244.000000
7629 14710 1 0.16500 119244.000000
7630 13403 1 0.16500 119244.000000
7630 15141 1 0.16500 119244.000000
7631 13403 1 0.16500 119244.000000
7631 15915 1 0.16500 119244.000000
7632 13404 1 0.16500 119244.000000
7632 14389 1 0.16500 119244.000000
7633 13404 1 0.16500 119244.000000
7633 14810 1 0.16500 119244.000000
7634 13404 1 0.16500 119244.000000
7634 15644 1 0.16500 119244.000000
7635 13404 1 0.16500 119244.000000
7635 14878 1 0.16500 119244.000000
7636 15139 1 0.16500 119244.000000
7636 16777 1 0.16500 119244.000000
7637 13405 1 0.16500 119244.000000
7637 13771 1 0.16500 119244.000000
7638 13405 1 0.16500 119244.000000
7638 24522 1 0.16500 119244.000000
7639 13405 1 0.16500 119244.000000
7639 15730 1 0.16500 119244.000000
7640 13406 1 0.16500 119244.000000
7640 14231 1 0.16500 119244.000000
7641 13406 1 0.16500 119244.000000
7641 14175 1 0.16500 119244.000000
7642 13407 1 0.16500 119244.000000
7642 15676 1 0.16500 119244.000000
7643 13407 1 0.16500 119244.000000
7643 15818 1 0.16500 119244.000000
7644 14103 1 0.16500 119244.000000
7644 15420 1 0.16500 119244.000000
7645 13408 1 0.16500 119244.000000
7645 15420 1 0.16500 119244.000000
7646 11720 1 0.16500 119244.000000
7646 13408 1 0.16500 119244.000000
7647 13409 1 0.16500 119244.000000
7647 15129 1 0.16500 119244.000000
7648 13409 1 0.16500 119244.000000
7648 13638 1 0.16500 119244.000000
7649 13410 1 0.16500 119244.000000
7649 15702 1 0.16500 119244.000000
7650 13410 1 0.16500 119244.000000
7650 13487 1 0.16500 119244.000000
7651 13411 1 0.16500 119244.000000
7651 14225 1 0.16500 119244.000000
7652 13411 1 0.16500 119244.000000
7652 14987 1 0.16500 119244.000000
7653 13411 1 0.16500 119244.000000
7653 13968 1 0.16500 119244.000000
7654 13412 1 0.16500 119244.000000
7654 16083 1 0.16500 119244.000000
7655 12689 1 0.16500 119244.000000
7655 15525 1 0.16500 119244.000000
7656 13413 1 0.16500 119244.000000
7656 14894 1 0.16500 119244.000000
7657 13414 1 0.16500 119244.000000
7657 23781 1 0.16500 119244.000000
7658 12294 1 0.16500 119244.000000
7658 14708 1 0.16500 119244.000000
7659 13415 1 0.16500 119244.000000
7659 14404 1 0.16500 119244.000000
7660 13415 1 0.16500 119244.000000
7660 15293 1 0.16500 119244.000000
7661 16791 1 0.16500 119244.000000
7661 24078 1 0.16500 119244.000000
7662 13517 1 0.16500 119244.000000
7662 16791 1 0.16500 119244.000000
7663 11676 1 0.16500 119244.000000
7663 24078 1 0.16500 119244.000000
7664 13416 1 0.16500 119244.000000
7664 14253 1 0.16500 119244.000000
7665 14215 1 0.16500 119244.000000
7665 22761 1 0.16500 119244.000000
7666 22761 1 0.16500 119244.000000
7666 23061 1 0.16500 119244.000000
7667 13418 1 0.16500 119244.000000
7667 14918 1 0.16500 119244.000000
7668 13419 1 0.16500 119244.000000
7668 15309 1 0.16500 119244.000000
7669 11336 1 0.16500 119244.000000
7669 13888 1 0.16500 119244.000000
7670 12808 1 0.16500 119244.000000
7670 15793 1 0.16500 119244.000000
7671 13420 1 0.16500 119244.000000
7671 15891 1 0.16500 119244.000000
7672 14655 1 0.16500 119244.000000
7672 15891 1 0.16500 119244.000000
7673 13421 1 0.16500 119244.000000
7673 14694 1 0.16500 119244.000000
7674 12700 1 0.16500 119244.000000
7674 13422 1 0.16500 119244.000000
7675 13423 1 0.16500 119244.000000
7675 14954 1 0.16500 119244.000000
7676 13423 1 0.16500 119244.000000
7676 15317 1 0.16500 119244.000000
7677 13423 1 0.16500 119244.000000
7677 14837 1 0.16500 119244.000000
7678 13424 1 0.16500 119244.000000
7678 14502 1 0.16500 119244.000000
7679 13424 1 0.16500 119244.000000
7679 15547 1 0.16500 119244.000000
7680 13424 1 0.16500 119244.000000
7680 14486 1 0.16500 119244.000000
7681 13425 1 0.16500 119244.000000
7681 14929 1 0.16500 119244.000000
7682 13425 1 0.16500 119244.000000
7682 14139 1 0.16500 119244.000000
7683 13426 1 0.16500 119244.000000
7683 14240 1 0.16500 119244.000000
7684 13426 1 0.16500 119244.000000
7684 16065 1 0.16500 119244.000000
7685 13426 1 0.16500 119244.000000
7685 15483 1 0.16500 119244.000000
7686 14427 1 0.16500 119244.000000
7686 16805 1 0.16500 119244.000000
7687 13713 1 0.16500 119244.000000
7687 22773 1 0.16500 119244.000000
7688 15039 1 0.16500 119244.000000
7688 22773 1 0.16500 119244.000000
7689 13428 1 0.16500 119244.000000
7689 15094 1 0.16500 119244.000000
7690 13428 1 0.16500 119244.000000
7690 15916 1 0.16500 119244.000000
7691 13429 1 0.16500 119244.000000
7691 15447 1 0.16500 119244.000000
7692 13429 1 0.16500 119244.000000
7692 15846 1 0.16500 119244.000000
7693 14435 1 0.16500 119244.000000
7693 15176 1 0.16500 119244.000000
7694 13430 1 0.16500 119244.000000
7694 13745 1 0.16500 119244.000000
7695 13430 1 0.16500 119244.000000
7695 14435 1 0.16500 119244.000000
7696 13430 1 0.16500 119244.000000
7696 15768 1 0.16500 119244.000000
7697 13431 1 0.16500 119244.000000
7697 16144 1 0.16500 119244.000000
7698 13431 1 0.16500 119244.000000
7698 14256 1 0.16500 119244.000000
7699 14069 1 0.16500 119244.000000
7699 16144 1 0.16500 119244.000000
7700 13432 1 0.16500 119244.000000
7700 15973 1 0.16500 119244.000000
7701 13432 1 0.16500 119244.000000
7701 15362 1 0.16500 119244.000000
7702 13433 1 0.16500 119244.000000
7702 15540 1 0.16500 119244.000000
7703 13433 1 0.16500 119244.000000
7703 14186 1 0.16500 119244.000000
7704 13434 1 0.16500 119244.000000
7704 14935 1 0.16500 119244.000000
7705 13434 1 0.16500 119244.000000
7705 15448 1 0.16500 119244.000000
7706 13435 1 0.16500 119244.000000
7706 13869 1 0.16500 119244.000000
7707 13435 1 0.16500 119244.000000
7707 14411 1 0.16500 119244.000000
7708 13436 1 0.16500 119244.000000
7708 24498 1 0.16500 119244.000000
7709 13436 1 0.16500 119244.000000
7709 15269 1 0.16500 119244.000000
7710 13436 1 0.16500 119244.000000
7710 14886 1 0.16500 119244.000000
7711 22785 1 0.16500 119244.000000
7711 24363 1 0.16500 119244.000000
7712 14062 1 0.16500 119244.000000
7712 22785 1 0.16500 119244.000000
7713 13437 1 0.16500 119244.000000
7713 15145 1 0.16500 119244.000000
7714 13437 1 0.16500 119244.000000
7714 22437 1 0.16500 119244.000000
7715 13438 1 0.16500 119244.000000
7715 16016 1 0.16500 119244.000000
7716 13438 1 0.16500 119244.000000
7716 15773 1 0.16500 119244.000000
7717 13438 1 0.16500 119244.000000
7717 14341 1 0.16500 119244.000000
7718 13439 1 0.16500 119244.000000
7718 16108 1 0.16500 119244.000000
7719 13439 1 0.16500 119244.000000
7719 15004 1 0.16500 119244.000000
7720 13439 1 0.16500 119244.000000
7720 15314 1 0.16500 119244.000000
7721 13440 1 0.16500 119244.000000
7721 14411 1 0.16500 119244.000000
7722 13441 1 0.16500 119244.000000
7722 13680 1 0.16500 119244.000000
7723 13441 1 0.16500 119244.000000
7723 15710 1 0.16500 119244.000000
7724 13441 1 0.16500 119244.000000
7724 14066 1 0.16500 119244.000000
7725 13441 1 0.16500 119244.000000
7725 14809 1 0.16500 119244.000000
7726 13442 1 0.16500 119244.000000
7726 14253 1 0.16500 119244.000000
7727 13442 1 0.16500 119244.000000
7727 15508 1 0.16500 119244.000000
7728 13442 1 0.16500 119244.000000
7728 14232 1 0.16500 119244.000000
7729 13443 1 0.16500 119244.000000
7729 16066 1 0.16500 119244.000000
7730 13443 1 0.16500 119244.000000
7730 14704 1 0.16500 119244.000000
7731 13444 1 0.16500 119244.000000
7731 14222 1 0.16500 119244.000000
7732 17701 1 0.16500 119244.000000
7732 22797 1 0.16500 119244.000000
7733 22797 1 0.16500 119244.000000
7733 24432 1 0.16500 119244.000000
7734 15276 1 0.16500 119244.000000
7734 22797 1 0.16500 119244.000000
7735 13445 1 0.16500 119244.000000
7735 15538 1 0.16500 119244.000000
7736 13445 1 0.16500 119244.000000
7736 14448 1 0.16500 119244.000000
7737 13445 1 0.16500 119244.000000
7737 13762 1 0.16500 119244.000000
7738 13446 1 0.16500 119244.000000
7738 14604 1 0.16500 119244.000000
7739 13138 1 0.16500 119244.000000
7739 14420 1 0.16500 119244.000000
7740 11409 1 0.16500 119244.000000
7740 13446 1 0.16500 119244.000000
7741 13447 1 0.16500 119244.000000
7741 24414 1 0.16500 119244.000000
7742 13447 1 0.16500 119244.000000
7742 23958 1 0.16500 119244.000000
7743 13447 1 0.16500 119244.000000
7743 14181 1 0.16500 119244.000000
7744 13447 1 0.16500 119244.000000
7744 15313 1 0.16500 119244.000000
7745 13448 1 0.16500 119244.000000
7745 15610 1 0.16500 119244.000000
7746 13449 1 0.16500 119244.000000
7746 14992 1 0.16500 119244.000000
7747 13449 1 0.16500 119244.000000
7747 14297 1 0.16500 119244.000000
7748 13449 1 0.16500 119244.000000
7748 14086 1 0.16500 119244.000000
7749 13449 1 0.16500 119244.000000
7749 15152 1 0.16500 119244.000000
7750 13451 1 0.16500 119244.000000
7750 15567 1 0.16500 119244.000000
7751 13451 1 0.16500 119244.000000
7751 14941 1 0.16500 119244.000000
7752 13452 1 0.16500 119244.000000
7752 15623 1 0.16500 119244.000000
7753 13452 1 0.16500 119244.000000
7753 15300 1 0.16500 119244.000000
7754 13452 1 0.16500 119244.000000
7754 15570 1 0.16500 119244.000000
7755 13453 1 0.16500 119244.000000
7755 16141 1 0.16500 119244.000000
7756 13453 1 0.16500 119244.000000
7756 14947 1 0.16500 119244.000000
7757 13453 1 0.16500 119244.000000
7757 16111 1 0.16500 119244.000000
7758 13454 1 0.16500 119244.000000
7758 15581 1 0.16500 119244.000000
7759 12319 1 0.16500 119244.000000
7759 16060 1 0.16500 119244.000000
7760 13455 1 0.16500 119244.000000
7760 15358 1 0.16500 119244.000000
7761 12512 1 0.16500 119244.000000
7761 15788 1 0.16500 119244.000000
7762 13457 1 0.16500 119244.000000
7762 22989 1 0.16500 119244.000000
7763 22821 1 0.16500 119244.000000
7763 22989 1 0.16500 119244.000000
7764 13457 1 0.16500 119244.000000
7764 15531 1 0.16500 119244.000000
7765 11605 1 0.16500 119244.000000
7765 16175 1 0.16500 119244.000000
7766 13458 1 0.16500 119244.000000
7766 14870 1 0.16500 119244.000000
7767 13458 1 0.16500 119244.000000
7767 14411 1 0.16500 119244.000000
7768 13459 1 0.16500 119244.000000
7768 14536 1 0.16500 119244.000000
7769 14657 1 0.16500 119244.000000
7769 22809 1 0.16500 119244.000000
7770 17253 1 0.16500 119244.000000
7770 22809 1 0.16500 119244.000000
7771 13460 1 0.16500 119244.000000
7771 15884 1 0.16500 119244.000000
7772 13460 1 0.16500 119244.000000
7772 17673 1 0.16500 119244.000000
7773 11389 1 0.16500 119244.000000
7773 13460 1 0.16500 119244.000000
7774 14264 1 0.16500 119244.000000
7774 15355 1 0.16500 119244.000000
7775 13461 1 0.16500 119244.000000
7775 14522 1 0.16500 119244.000000
7776 13461 1 0.16500 119244.000000
7776 15355 1 0.16500 119244.000000
7777 13462 1 0.16500 119244.000000
7777 13532 1 0.16500 119244.000000
7778 13463 1 0.16500 119244.000000
7778 16002 1 0.16500 119244.000000
7779 13463 1 0.16500 119244.000000
7779 14098 1 0.16500 119244.000000
7780 13464 1 0.16500 119244.000000
7780 14861 1 0.16500 119244.000000
7781 13275 1 0.16500 119244.000000
7781 14658 1 0.16500 119244.000000
7782 13464 1 0.16500 119244.000000
7782 16007 1 0.16500 119244.000000
7783 22173 1 0.16500 119244.000000
7783 22821 1 0.16500 119244.000000
7784 14226 1 0.16500 119244.000000
7784 15911 1 0.16500 119244.000000
7785 14226 1 0.16500 119244.000000
7785 22821 1 0.16500 119244.000000
7786 13465 1 0.16500 119244.000000
7786 14065 1 0.16500 119244.000000
7787 13465 1 0.16500 119244.000000
7787 15234 1 0.16500 119244.000000
7788 13466 1 0.16500 119244.000000
7788 23964 1 0.16500 119244.000000
7789 13466 1 0.16500 119244.000000
7789 15694 1 0.16500 119244.000000
7790 13466 1 0.16500 119244.000000
7790 16175 1 0.16500 119244.000000
7791 13467 1 0.16500 119244.000000
7791 14885 1 0.16500 119244.000000
7792 13468 1 0.16500 119244.000000
7792 15220 1 0.16500 119244.000000
7793 13469 1 0.16500 119244.000000
7793 14880 1 0.16500 119244.000000
7794 13469 1 0.16500 119244.000000
7794 16164 1 0.16500 119244.000000
7795 13469 1 0.16500 119244.000000
7795 14547 1 0.16500 119244.000000
7796 13470 1 0.16500 119244.000000
7796 15852 1 0.16500 119244.000000
7797 13470 1 0.16500 119244.000000
7797 13886 1 0.16500 119244.000000
7798 13472 1 0.16500 119244.000000
7798 15805 1 0.16500 119244.000000
7799 13472 1 0.16500 119244.000000
7799 13857 1 0.16500 119244.000000
7800 13665 1 0.16500 119244.000000
7800 22833 1 0.16500 119244.000000
7801 13473 1 0.16500 119244.000000
7801 15072 1 0.16500 119244.000000
7802 13473 1 0.16500 119244.000000
7802 15824 1 0.16500 119244.000000
7803 13474 1 0.16500 119244.000000
7803 14019 1 0.16500 119244.000000
7804 13475 1 0.16500 119244.000000
7804 15000 1 0.16500 119244.000000
7805 22845 1 0.16500 119244.000000
7805 23145 1 0.16500 119244.000000
7806 22845 1 0.16500 119244.000000
7806 24459 1 0.16500 119244.000000
7807 13476 1 0.16500 119244.000000
7807 24012 1 0.16500 119244.000000
7808 13477 1 0.16500 119244.000000
7808 14691 1 0.16500 119244.000000
7809 13477 1 0.16500 119244.000000
7809 13693 1 0.16500 119244.000000
7810 13477 1 0.16500 119244.000000
7810 14624 1 0.16500 119244.000000
7811 13477 1 0.16500 119244.000000
7811 15306 1 0.16500 119244.000000
7812 13739 1 0.16500 119244.000000
7812 16819 1 0.16500 119244.000000
7813 16819 1 0.16500 119244.000000
7813 24714 1 0.16500 119244.000000
7814 13478 1 0.16500 119244.000000
7814 15416 1 0.16500 119244.000000
7815 13478 1 0.16500 119244.000000
7815 13563 1 0.16500 119244.000000
7816 13479 1 0.16500 119244.000000
7816 15462 1 0.16500 119244.000000
7817 13479 1 0.16500 119244.000000
7817 15051 1 0.16500 119244.000000
7818 23073 1 0.16500 119244.000000
7818 24405 1 0.16500 119244.000000
7819 15524 1 0.16500 119244.000000
7819 23073 1 0.16500 119244.000000
7820 12117 1 0.16500 119244.000000
7820 14935 1 0.16500 119244.000000
7821 13481 1 0.16500 119244.000000
7821 15258 1 0.16500 119244.000000
7822 13481 1 0.16500 119244.000000
7822 14911 1 0.16500 119244.000000
7823 13482 1 0.16500 119244.000000
7823 13817 1 0.16500 119244.000000
7824 13482 1 0.16500 119244.000000
7824 16147 1 0.16500 119244.000000
7825 13482 1 0.16500 119244.000000
7825 15545 1 0.16500 119244.000000
7826 13484 1 0.16500 119244.000000
7826 15784 1 0.16500 119244.000000
7827 13484 1 0.16500 119244.000000
7827 16136 1 0.16500 119244.000000
7828 13485 1 0.16500 119244.000000
7828 15931 1 0.16500 119244.000000
7829 13485 1 0.16500 119244.000000
7829 15788 1 0.16500 119244.000000
7830 13486 1 0.16500 119244.000000
7830 16210 1 0.16500 119244.000000
7831 13486 1 0.16500 119244.000000
7831 14754 1 0.16500 119244.000000
7832 15974 1 0.16500 119244.000000
7832 16189 1 0.16500 119244.000000
7833 13487 1 0.16500 119244.000000
7833 16189 1 0.16500 119244.000000
7834 13488 1 0.16500 119244.000000
7834 24003 1 0.16500 119244.000000
7835 13488 1 0.16500 119244.000000
7835 14750 1 0.16500 119244.000000
7836 13488 1 0.16500 119244.000000
7836 23943 1 0.16500 119244.000000
7837 13489 1 0.16500 119244.000000
7837 14237 1 0.16500 119244.000000
7838 13489 1 0.16500 119244.000000
7838 14452 1 0.16500 119244.000000
7839 13490 1 0.16500 119244.000000
7839 13808 1 0.16500 119244.000000
7840 13491 1 0.16500 119244.000000
7840 14258 1 0.16500 119244.000000
7841 13491 1 0.16500 119244.000000
7841 13590 1 0.16500 119244.000000
7842 22857 1 0.16500 119244.000000
7842 23685 1 0.16500 119244.000000
7843 22869 1 0.16500 119244.000000
7843 24360 1 0.16500 119244.000000
7844 13517 1 0.16500 119244.000000
7844 22869 1 0.16500 119244.000000
7845 15865 1 0.16500 119244.000000
7845 22869 1 0.16500 119244.000000
7846 13492 1 0.16500 119244.000000
7846 14458 1 0.16500 119244.000000
7847 13492 1 0.16500 119244.000000
7847 13493 1 0.16500 119244.000000
7848 13493 1 0.16500 119244.000000
7848 14333 1 0.16500 119244.000000
7849 13493 1 0.16500 119244.000000
7849 15198 1 0.16500 119244.000000
7850 13494 1 0.16500 119244.000000
7850 14367 1 0.16500 119244.000000
7851 15286 1 0.16500 119244.000000
7851 24084 1 0.16500 119244.000000
7852 13494 1 0.16500 119244.000000
7852 15286 1 0.16500 119244.000000
7853 13495 1 0.16500 119244.000000
7853 15647 1 0.16500 119244.000000
7854 13496 1 0.16500 119244.000000
7854 14971 1 0.16500 119244.000000
7855 13496 1 0.16500 119244.000000
7855 13521 1 0.16500 119244.000000
7856 13497 1 0.16500 119244.000000
7856 15305 1 0.16500 119244.000000
7857 13497 1 0.16500 119244.000000
7857 14095 1 0.16500 119244.000000
7858 13497 1 0.16500 119244.000000
7858 15761 1 0.16500 119244.000000
7859 13618 1 0.16500 119244.000000
7859 16833 1 0.16500 119244.000000
7860 13498 1 0.16500 119244.000000
7860 16931 1 0.16500 119244.000000
7861 13498 1 0.16500 119244.000000
7861 24363 1 0.16500 119244.000000
7862 13499 1 0.16500 119244.000000
7862 23919 1 0.16500 119244.000000
7863 13499 1 0.16500 119244.000000
7863 24543 1 0.16500 119244.000000
7864 13499 1 0.16500 119244.000000
7864 16172 1 0.16500 119244.000000
7865 12944 1 0.16500 119244.000000
7865 13500 1 0.16500 119244.000000
7866 13500 1 0.16500 119244.000000
7866 14242 1 0.16500 119244.000000
7867 13500 1 0.16500 119244.000000
7867 14079 1 0.16500 119244.000000
7868 13500 1 0.16500 119244.000000
7868 16130 1 0.16500 119244.000000
7869 13502 1 0.16500 119244.000000
7869 15790 1 0.16500 119244.000000
7870 13502 1 0.16500 119244.000000
7870 13549 1 0.16500 119244.000000
7871 13503 1 0.16500 119244.000000
7871 15049 1 0.16500 119244.000000
7872 13503 1 0.16500 119244.000000
7872 14204 1 0.16500 119244.000000
7873 13504 1 0.16500 119244.000000
7873 15195 1 0.16500 119244.000000
7874 13504 1 0.16500 119244.000000
7874 15715 1 0.16500 119244.000000
7875 13505 1 0.16500 119244.000000
7875 14347 1 0.16500 119244.000000
7876 13505 1 0.16500 119244.000000
7876 13799 1 0.16500 119244.000000
7877 13505 1 0.16500 119244.000000
7877 24432 1 0.16500 119244.000000
7878 13090 1 0.16500 119244.000000
7878 13506 1 0.16500 119244.000000
7879 13506 1 0.16500 119244.000000
7879 15225 1 0.16500 119244.000000
7880 13506 1 0.16500 119244.000000
7880 15857 1 0.16500 119244.000000
7881 13507 1 0.16500 119244.000000
7881 15589 1 0.16500 119244.000000
7882 13507 1 0.16500 119244.000000
7882 15878 1 0.16500 119244.000000
7883 13508 1 0.16500 119244.000000
7883 14841 1 0.16500 119244.000000
7884 13508 1 0.16500 119244.000000
7884 15250 1 0.16500 119244.000000
7885 13508 1 0.16500 119244.000000
7885 13597 1 0.16500 119244.000000
7886 13509 1 0.16500 119244.000000
7886 15448 1 0.16500 119244.000000
7887 13509 1 0.16500 119244.000000
7887 15496 1 0.16500 119244.000000
7888 13509 1 0.16500 119244.000000
7888 14789 1 0.16500 119244.000000
7889 13510 1 0.16500 119244.000000
7889 16032 1 0.16500 119244.000000
7890 13510 1 0.16500 119244.000000
7890 15646 1 0.16500 119244.000000
7891 13510 1 0.16500 119244.000000
7891 14429 1 0.16500 119244.000000
7892 13511 1 0.16500 119244.000000
7892 13941 1 0.16500 119244.000000
7893 13511 1 0.16500 119244.000000
7893 14868 1 0.16500 119244.000000
7894 13511 1 0.16500 119244.000000
7894 13530 1 0.16500 119244.000000
7895 13512 1 0.16500 119244.000000
7895 15707 1 0.16500 119244.000000
7896 13512 1 0.16500 119244.000000
7896 15761 1 0.16500 119244.000000
7897 13512 1 0.16500 119244.000000
7897 19497 1 0.16500 119244.000000
7898 13513 1 0.16500 119244.000000
7898 14078 1 0.16500 119244.000000
7899 13513 1 0.16500 119244.000000
7899 14410 1 0.16500 119244.000000
7900 13513 1 0.16500 119244.000000
7900 15244 1 0.16500 119244.000000
7901 13514 1 0.16500 119244.000000
7901 14207 1 0.16500 119244.000000
7902 13515 1 0.16500 119244.000000
7902 15939 1 0.16500 119244.000000
7903 13515 1 0.16500 119244.000000
7903 13983 1 0.16500 119244.000000
7904 13516 1 0.16500 119244.000000
7904 15806 1 0.16500 119244.000000
7905 13516 1 0.16500 119244.000000
7905 13869 1 0.16500 119244.000000
7906 13518 1 0.16500 119244.000000
7906 14331 1 0.16500 119244.000000
7907 13518 1 0.16500 119244.000000
7907 13823 1 0.16500 119244.000000
7908 22881 1 0.16500 119244.000000
7908 24585 1 0.16500 119244.000000
7909 13519 1 0.16500 119244.000000
7909 24749 1 0.16500 119244.000000
7910 13519 1 0.16500 119244.000000
7910 13655 1 0.16500 119244.000000
7911 13520 1 0.16500 119244.000000
7911 15963 1 0.16500 119244.000000
7912 13520 1 0.16500 119244.000000
7912 14695 1 0.16500 119244.000000
7913 13521 1 0.16500 119244.000000
7913 13731 1 0.16500 119244.000000
7914 13521 1 0.16500 119244.000000
7914 14487 1 0.16500 119244.000000
7915 13521 1 0.16500 119244.000000
7915 15682 1 0.16500 119244.000000
7916 13522 1 0.16500 119244.000000
7916 15835 1 0.16500 119244.000000
7917 13522 1 0.16500 119244.000000
7917 15633 1 0.16500 119244.000000
7918 13523 1 0.16500 119244.000000
7918 14976 1 0.16500 119244.000000
7919 13523 1 0.16500 119244.000000
7919 14207 1 0.16500 119244.000000
7920 13523 1 0.16500 119244.000000
7920 15268 1 0.16500 119244.000000
7921 13524 1 0.16500 119244.000000
7921 14575 1 0.16500 119244.000000
7922 13524 1 0.16500 119244.000000
7922 13967 1 0.16500 119244.000000
7923 13525 1 0.16500 119244.000000
7923 14759 1 0.16500 119244.000000
7924 13525 1 0.16500 119244.000000
7924 15704 1 0.16500 119244.000000
7925 13525 1 0.16500 119244.000000
7925 13580 1 0.16500 119244.000000
7926 13526 1 0.16500 119244.000000
7926 15144 1 0.16500 119244.000000
7927 13527 1 0.16500 119244.000000
7927 16178 1 0.16500 119244.000000
7928 13527 1 0.16500 119244.000000
7928 14033 1 0.16500 119244.000000
7929 13528 1 0.16500 119244.000000
7929 16003 1 0.16500 119244.000000
7930 13528 1 0.16500 119244.000000
7930 14949 1 0.16500 119244.000000
7931 13528 1 0.16500 119244.000000
7931 13593 1 0.16500 119244.000000
7932 15634 1 0.16500 119244.000000
7932 22893 1 0.16500 119244.000000
7933 18107 1 0.16500 119244.000000
7933 22893 1 0.16500 119244.000000
7934 13529 1 0.16500 119244.000000
7934 15874 1 0.16500 119244.000000
7935 13529 1 0.16500 119244.000000
7935 15375 1 0.16500 119244.000000
7936 13529 1 0.16500 119244.000000
7936 14023 1 0.16500 119244.000000
7937 13530 1 0.16500 119244.000000
7937 15437 1 0.16500 119244.000000
7938 13530 1 0.16500 119244.000000
7938 13898 1 0.16500 119244.000000
7939 13530 1 0.16500 119244.000000
7939 14533 1 0.16500 119244.000000
7940 13531 1 0.16500 119244.000000
7940 16104 1 0.16500 119244.000000
7941 13531 1 0.16500 119244.000000
7941 14449 1 0.16500 119244.000000
7942 13532 1 0.16500 119244.000000
7942 14959 1 0.16500 119244.000000
7943 13533 1 0.16500 119244.000000
7943 13837 1 0.16500 119244.000000
7944 13533 1 0.16500 119244.000000
7944 15541 1 0.16500 119244.000000
7945 14401 1 0.16500 119244.000000
7945 16847 1 0.16500 119244.000000
7946 13534 1 0.16500 119244.000000
7946 14101 1 0.16500 119244.000000
7947 13534 1 0.16500 119244.000000
7947 15166 1 0.16500 119244.000000
7948 13534 1 0.16500 119244.000000
7948 13710 1 0.16500 119244.000000
7949 13535 1 0.16500 119244.000000
7949 15559 1 0.16500 119244.000000
7950 13536 1 0.16500 119244.000000
7950 14793 1 0.16500 119244.000000
7951 13537 1 0.16500 119244.000000
7951 15944 1 0.16500 119244.000000
7952 13537 1 0.16500 119244.000000
7952 14854 1 0.16500 119244.000000
7953 12673 1 0.16500 119244.000000
7953 13537 1 0.16500 119244.000000
7954 13538 1 0.16500 119244.000000
7954 16041 1 0.16500 119244.000000
7955 13539 1 0.16500 119244.000000
7955 16014 1 0.16500 119244.000000
7956 22905 1 0.16500 119244.000000
7956 24351 1 0.16500 119244.000000
7957 13540 1 0.16500 119244.000000
7957 15942 1 0.16500 119244.000000
7958 13540 1 0.16500 119244.000000
7958 13981 1 0.16500 119244.000000
7959 13540 1 0.16500 119244.000000
7959 15118 1 0.16500 119244.000000
7960 13541 1 0.16500 119244.000000
7960 14804 1 0.16500 119244.000000
7961 13541 1 0.16500 119244.000000
7961 16053 1 0.16500 119244.000000
7962 13542 1 0.16500 119244.000000
7962 16131 1 0.16500 119244.000000
7963 13543 1 0.16500 119244.000000
7963 15512 1 0.16500 119244.000000
7964 13543 1 0.16500 119244.000000
7964 15259 1 0.16500 119244.000000
7965 13543 1 0.16500 119244.000000
7965 15729 1 0.16500 119244.000000
7966 13543 1 0.16500 119244.000000
7966 15148 1 0.16500 119244.000000
7967 13544 1 0.16500 119244.000000
7967 15181 1 0.16500 119244.000000
7968 13544 1 0.16500 119244.000000
7968 13741 1 0.16500 119244.000000
7969 13546 1 0.16500 119244.000000
7969 14814 1 0.16500 119244.000000
7970 13546 1 0.16500 119244.000000
7970 14861 1 0.16500 119244.000000
7971 13546 1 0.16500 119244.000000
7971 14603 1 0.16500 119244.000000
7972 16037 1 0.16500 119244.000000
7972 16074 1 0.16500 119244.000000
7973 14310 1 0.16500 119244.000000
7973 16037 1 0.16500 119244.000000
7974 13547 1 0.16500 119244.000000
7974 16037 1 0.16500 119244.000000
7975 13548 1 0.16500 119244.000000
7975 15495 1 0.16500 119244.000000
7976 13548 1 0.16500 119244.000000
7976 14384 1 0.16500 119244.000000
7977 13549 1 0.16500 119244.000000
7977 14196 1 0.16500 119244.000000
7978 13550 1 0.16500 119244.000000
7978 24570 1 0.16500 119244.000000
7979 13550 1 0.16500 119244.000000
7979 24279 1 0.16500 119244.000000
7980 13550 1 0.16500 119244.000000
7980 17057 1 0.16500 119244.000000
7981 13551 1 0.16500 119244.000000
7981 17785 1 0.16500 119244.000000
7982 13552 1 0.16500 119244.000000
7982 15821 1 0.16500 119244.000000
7983 13552 1 0.16500 119244.000000
7983 15353 1 0.16500 119244.000000
7984 13553 1 0.16500 119244.000000
7984 16137 1 0.16500 119244.000000
7985 13553 1 0.16500 119244.000000
7985 14436 1 0.16500 119244.000000
7986 13554 1 0.16500 119244.000000
7986 14643 1 0.16500 119244.000000
7987 13554 1 0.16500 119244.000000
7987 15212 1 0.16500 119244.000000
7988 13554 1 0.16500 119244.000000
7988 16096 1 0.16500 119244.000000
7989 13555 1 0.16500 119244.000000
7989 13991 1 0.16500 119244.000000
7990 13555 1 0.16500 119244.000000
7990 24591 1 0.16500 119244.000000
7991 13555 1 0.16500 119244.000000
7991 24549 1 0.16500 119244.000000
7992 13556 1 0.16500 119244.000000
7992 14994 1 0.16500 119244.000000
7993 13556 1 0.16500 119244.000000
7993 14079 1 0.16500 119244.000000
7994 13557 1 0.16500 119244.000000
7994 15560 1 0.16500 119244.000000
7995 13558 1 0.16500 119244.000000
7995 14570 1 0.16500 119244.000000
7996 13558 1 0.16500 119244.000000
7996 14507 1 0.16500 119244.000000
7997 13558 1 0.16500 119244.000000
7997 15395 1 0.16500 119244.000000
7998 13559 1 0.16500 119244.000000
7998 15617 1 0.16500 119244.000000
7999 13559 1 0.16500 119244.000000
7999 13795 1 0.16500 119244.000000
8000 13559 1 0.16500 119244.000000
8000 14454 1 0.16500 119244.000000
8001 13561 1 0.16500 119244.000000
8001 14235 1 0.16500 119244.000000
8002 13561 1 0.16500 119244.000000
8002 14276 1 0.16500 119244.000000
8003 13561 1 0.16500 119244.000000
8003 15460 1 0.16500 119244.000000
8004 13562 1 0.16500 119244.000000
8004 14623 1 0.16500 119244.000000
8005 13562 1 0.16500 119244.000000
8005 14852 1 0.16500 119244.000000
8006 13562 1 0.16500 119244.000000
8006 15673 1 0.16500 119244.000000
8007 13562 1 0.16500 119244.000000
8007 13796 1 0.16500 119244.000000
8008 13563 1 0.16500 119244.000000
8008 15309 1 0.16500 119244.000000
8009 13563 1 0.16500 119244.000000
8009 14314 1 0.16500 119244.000000
8010 13564 1 0.16500 119244.000000
8010 13720 1 0.16500 119244.000000
8011 13564 1 0.16500 119244.000000
8011 23892 1 0.16500 119244.000000
8012 15458 1 0.16500 119244.000000
8012 16875 1 0.16500 119244.000000
8013 15928 1 0.16500 119244.000000
8013 16875 1 0.16500 119244.000000
8014 13350 1 0.16500 119244.000000
8014 13565 1 0.16500 119244.000000
8015 13566 1 0.16500 119244.000000
8015 15867 1 0.16500 119244.000000
8016 13566 1 0.16500 119244.000000
8016 14005 1 0.16500 119244.000000
8017 13566 1 0.16500 119244.000000
8017 16150 1 0.16500 119244.000000
8018 13566 1 0.16500 119244.000000
8018 14474 1 0.16500 119244.000000
8019 13567 1 0.16500 119244.000000
8019 15145 1 0.16500 119244.000000
8020 13567 1 0.16500 119244.000000
8020 16127 1 0.16500 119244.000000
8021 13567 1 0.16500 119244.000000
8021 14130 1 0.16500 119244.000000
8022 12894 1 0.16500 119244.000000
8022 13567 1 0.16500 119244.000000
8023 13568 1 0.16500 119244.000000
8023 15037 1 0.16500 119244.000000
8024 13568 1 0.16500 119244.000000
8024 14594 1 0.16500 119244.000000
8025 13569 1 0.16500 119244.000000
8025 16052 1 0.16500 119244.000000
8026 13569 1 0.16500 119244.000000
8026 15530 1 0.16500 119244.000000
8027 13569 1 0.16500 119244.000000
8027 15000 1 0.16500 119244.000000
8028 13570 1 0.16500 119244.000000
8028 15902 1 0.16500 119244.000000
8029 13571 1 0.16500 119244.000000
8029 13694 1 0.16500 119244.000000
8030 13571 1 0.16500 119244.000000
8030 16155 1 0.16500 119244.000000
8031 13571 1 0.16500 119244.000000
8031 13897 1 0.16500 119244.000000
8032 13571 1 0.16500 119244.000000
8032 15442 1 0.16500 119244.000000
8033 13572 1 0.16500 119244.000000
8033 14066 1 0.16500 119244.000000
8034 13572 1 0.16500 119244.000000
8034 14101 1 0.16500 119244.000000
8035 13572 1 0.16500 119244.000000
8035 14545 1 0.16500 119244.000000
8036 13573 1 0.16500 119244.000000
8036 14187 1 0.16500 119244.000000
8037 13573 1 0.16500 119244.000000
8037 14806 1 0.16500 119244.000000
8038 13574 1 0.16500 119244.000000
8038 15336 1 0.16500 119244.000000
8039 13574 1 0.16500 119244.000000
8039 15233 1 0.16500 119244.000000
8040 13575 1 0.16500 119244.000000
8040 14979 1 0.16500 119244.000000
8041 13575 1 0.16500 119244.000000
8041 13824 1 0.16500 119244.000000
8042 13576 1 0.16500 119244.000000
8042 13674 1 0.16500 119244.000000
8043 14717 1 0.16500 119244.000000
8043 16889 1 0.16500 119244.000000
8044 14717 1 0.16500 119244.000000
8044 24258 1 0.16500 119244.000000
8045 17225 1 0.16500 119244.000000
8045 22917 1 0.16500 119244.000000
8046 13577 1 0.16500 119244.000000
8046 16012 1 0.16500 119244.000000
8047 13578 1 0.16500 119244.000000
8047 15370 1 0.16500 119244.000000
8048 13578 1 0.16500 119244.000000
8048 15374 1 0.16500 119244.000000
8049 13579 1 0.16500 119244.000000
8049 14823 1 0.16500 119244.000000
8050 13579 1 0.16500 119244.000000
8050 15482 1 0.16500 119244.000000
8051 13580 1 0.16500 119244.000000
8051 14124 1 0.16500 119244.000000
8052 13580 1 0.16500 119244.000000
8052 13629 1 0.16500 119244.000000
8053 13582 1 0.16500 119244.000000
8053 14981 1 0.16500 119244.000000
8054 13582 1 0.16500 119244.000000
8054 24282 1 0.16500 119244.000000
8055 13583 1 0.16500 119244.000000
8055 14684 1 0.16500 119244.000000
8056 13583 1 0.16500 119244.000000
8056 14132 1 0.16500 119244.000000
8057 11610 1 0.16500 119244.000000
8057 13583 1 0.16500 119244.000000
8058 13584 1 0.16500 119244.000000
8058 23937 1 0.16500 119244.000000
8059 13584 1 0.16500 119244.000000
8059 15063 1 0.16500 119244.000000
8060 13585 1 0.16500 119244.000000
8060 15057 1 0.16500 119244.000000
8061 13585 1 0.16500 119244.000000
8061 14343 1 0.16500 119244.000000
8062 13586 1 0.16500 119244.000000
8062 14499 1 0.16500 119244.000000
8063 13587 1 0.16500 119244.000000
8063 15432 1 0.16500 119244.000000
8064 13588 1 0.16500 119244.000000
8064 15689 1 0.16500 119244.000000
8065 13588 1 0.16500 119244.000000
8065 15787 1 0.16500 119244.000000
8066 13588 1 0.16500 119244.000000
8066 14125 1 0.16500 119244.000000
8067 16903 1 0.16500 119244.000000
8067 24423 1 0.16500 119244.000000
8068 13589 1 0.16500 119244.000000
8068 13816 1 0.16500 119244.000000
8069 13589 1 0.16500 119244.000000
8069 15149 1 0.16500 119244.000000
8070 13590 1 0.16500 119244.000000
8070 14768 1 0.16500 119244.000000
8071 13590 1 0.16500 119244.000000
8071 14022 1 0.16500 119244.000000
8072 13591 1 0.16500 119244.000000
8072 15143 1 0.16500 119244.000000
8073 13592 1 0.16500 119244.000000
8073 15993 1 0.16500 119244.000000
8074 13593 1 0.16500 119244.000000
8074 14774 1 0.16500 119244.000000
8075 13594 1 0.16500 119244.000000
8075 13964 1 0.16500 119244.000000
8076 13594 1 0.16500 119244.000000
8076 14665 1 0.16500 119244.000000
8077 13594 1 0.16500 119244.000000
8077 15315 1 0.16500 119244.000000
8078 13595 1 0.16500 119244.000000
8078 13780 1 0.16500 119244.000000
8079 13595 1 0.16500 119244.000000
8079 14863 1 0.16500 119244.000000
8080 13595 1 0.16500 119244.000000
8080 14556 1 0.16500 119244.000000
8081 22929 1 0.16500 119244.000000
8081 24621 1 0.16500 119244.000000
8082 13596 1 0.16500 119244.000000
8082 15106 1 0.16500 119244.000000
8083 13596 1 0.16500 119244.000000
8083 14711 1 0.16500 119244.000000
8084 13243 1 0.16500 119244.000000
8084 23517 1 0.16500 119244.000000
8085 13597 1 0.16500 119244.000000
8085 14943 1 0.16500 119244.000000
8086 13597 1 0.16500 119244.000000
8086 14417 1 0.16500 119244.000000
8087 13598 1 0.16500 119244.000000
8087 14870 1 0.16500 119244.000000
8088 13598 1 0.16500 119244.000000
8088 14816 1 0.16500 119244.000000
8089 14184 1 0.16500 119244.000000
8089 22941 1 0.16500 119244.000000
8090 12393 1 0.16500 119244.000000
8090 22941 1 0.16500 119244.000000
8091 22953 1 0.16500 119244.000000
8091 23913 1 0.16500 119244.000000
8092 14491 1 0.16500 119244.000000
8092 22953 1 0.16500 119244.000000
8093 17169 1 0.16500 119244.000000
8093 22953 1 0.16500 119244.000000
8094 13599 1 0.16500 119244.000000
8094 13941 1 0.16500 119244.000000
8095 13599 1 0.16500 119244.000000
8095 17827 1 0.16500 119244.000000
8096 13600 1 0.16500 119244.000000
8096 15394 1 0.16500 119244.000000
8097 13600 1 0.16500 119244.000000
8097 24784 1 0.16500 119244.000000
8098 13601 1 0.16500 119244.000000
8098 15698 1 0.16500 119244.000000
8099 15289 1 0.16500 119244.000000
8099 15619 1 0.16500 119244.000000
8100 13601 1 0.16500 119244.000000
8100 13805 1 0.16500 119244.000000
8101 13601 1 0.16500 119244.000000
8101 15619 1 0.16500 119244.000000
8102 13602 1 0.16500 119244.000000
8102 14531 1 0.16500 119244.000000
8103 13602 1 0.16500 119244.000000
8103 15601 1 0.16500 119244.000000
8104 13602 1 0.16500 119244.000000
8104 13705 1 0.16500 119244.000000
8105 14096 1 0.16500 119244.000000
8105 15406 1 0.16500 119244.000000
8106 14096 1 0.16500 119244.000000
8106 22965 1 0.16500 119244.000000
8107 13605 1 0.16500 119244.000000
8107 15324 1 0.16500 119244.000000
8108 13606 1 0.16500 119244.000000
8108 14473 1 0.16500 119244.000000
8109 13606 1 0.16500 119244.000000
8109 15584 1 0.16500 119244.000000
8110 13606 1 0.16500 119244.000000
8110 16028 1 0.16500 119244.000000
8111 13607 1 0.16500 119244.000000
8111 23979 1 0.16500 119244.000000
8112 13607 1 0.16500 119244.000000
8112 15580 1 0.16500 119244.000000
8113 13608 1 0.16500 119244.000000
8113 15072 1 0.16500 119244.000000
8114 13608 1 0.16500 119244.000000
8114 13616 1 0.16500 119244.000000
8115 12014 1 0.16500 119244.000000
8115 14969 1 0.16500 119244.000000
8116 13609 1 0.16500 119244.000000
8116 16070 1 0.16500 119244.000000
8117 13610 1 0.16500 119244.000000
8117 14821 1 0.16500 119244.000000
8118 13610 1 0.16500 119244.000000
8118 15062 1 0.16500 119244.000000
8119 13611 1 0.16500 119244.000000
8119 15782 1 0.16500 119244.000000
8120 13611 1 0.16500 119244.000000
8120 15463 1 0.16500 119244.000000
8121 13611 1 0.16500 119244.000000
8121 15713 1 0.16500 119244.000000
8122 13229 1 0.16500 119244.000000
8122 13612 1 0.16500 119244.000000
8123 13613 1 0.16500 119244.000000
8123 15677 1 0.16500 119244.000000
8124 13613 1 0.16500 119244.000000
8124 15844 1 0.16500 119244.000000
8125 13614 1 0.16500 119244.000000
8125 13818 1 0.16500 119244.000000
8126 13614 1 0.16500 119244.000000
8126 15748 1 0.16500 119244.000000
8127 13615 1 0.16500 119244.000000
8127 16096 1 0.16500 119244.000000
8128 13615 1 0.16500 119244.000000
8128 15070 1 0.16500 119244.000000
8129 13615 1 0.16500 119244.000000
8129 13995 1 0.16500 119244.000000
8130 13616 1 0.16500 119244.000000
8130 15824 1 0.16500 119244.000000
8131 13616 1 0.16500 119244.000000
8131 14249 1 0.16500 119244.000000
8132 13617 1 0.16500 119244.000000
8132 14325 1 0.16500 119244.000000
8133 13617 1 0.16500 119244.000000
8133 16009 1 0.16500 119244.000000
8134 13618 1 0.16500 119244.000000
8134 14714 1 0.16500 119244.000000
8135 13618 1 0.16500 119244.000000
8135 14703 1 0.16500 119244.000000
8136 13619 1 0.16500 119244.000000
8136 13641 1 0.16500 119244.000000
8137 13619 1 0.16500 119244.000000
8137 14386 1 0.16500 119244.000000
8138 13619 1 0.16500 119244.000000
8138 15331 1 0.16500 119244.000000
8139 13620 1 0.16500 119244.000000
8139 15913 1 0.16500 119244.000000
8140 13620 1 0.16500 119244.000000
8140 15211 1 0.16500 119244.000000
8141 13620 1 0.16500 119244.000000
8141 15047 1 0.16500 119244.000000
8142 15608 1 0.16500 119244.000000
8142 22977 1 0.16500 119244.000000
8143 13621 1 0.16500 119244.000000
8143 14611 1 0.16500 119244.000000
8144 13621 1 0.16500 119244.000000
8144 14636 1 0.16500 119244.000000
8145 13622 1 0.16500 119244.000000
8145 15801 1 0.16500 119244.000000
8146 13623 1 0.16500 119244.000000
8146 14600 1 0.16500 119244.000000
8147 13623 1 0.16500 119244.000000
8147 15809 1 0.16500 119244.000000
8148 14046 1 0.16500 119244.000000
8148 15630 1 0.16500 119244.000000
8149 13624 1 0.16500 119244.000000
8149 15630 1 0.16500 119244.000000
8150 13457 1 0.16500 119244.000000
8150 15398 1 0.16500 119244.000000
8151 13625 1 0.16500 119244.000000
8151 13746 1 0.16500 119244.000000
8152 13625 1 0.16500 119244.000000
8152 15215 1 0.16500 119244.000000
8153 14573 1 0.16500 119244.000000
8153 23001 1 0.16500 119244.000000
8154 13626 1 0.16500 119244.000000
8154 14764 1 0.16500 119244.000000
8155 13626 1 0.16500 119244.000000
8155 14895 1 0.16500 119244.000000
8156 14764 1 0.16500 119244.000000
8156 15208 1 0.16500 119244.000000
8157 13626 1 0.16500 119244.000000
8157 14077 1 0.16500 119244.000000
8158 13627 1 0.16500 119244.000000
8158 14504 1 0.16500 119244.000000
8159 13627 1 0.16500 119244.000000
8159 16055 1 0.16500 119244.000000
8160 13628 1 0.16500 119244.000000
8160 16209 1 0.16500 119244.000000
8161 11568 1 0.16500 119244.000000
8161 14300 1 0.16500 119244.000000
8162 11568 1 0.16500 119244.000000
8162 13628 1 0.16500 119244.000000
8163 13629 1 0.16500 119244.000000
8163 13782 1 0.16500 119244.000000
8164 13629 1 0.16500 119244.000000
8164 15558 1 0.16500 119244.000000
8165 13630 1 0.16500 119244.000000
8165 15074 1 0.16500 119244.000000
8166 11564 1 0.16500 119244.000000
8166 15868 1 0.16500 119244.000000
8167 13631 1 0.16500 119244.000000
8167 15887 1 0.16500 119244.000000
8168 13632 1 0.16500 119244.000000
8168 14171 1 0.16500 119244.000000
8169 13633 1 0.16500 119244.000000
8169 14597 1 0.16500 119244.000000
8170 13633 1 0.16500 119244.000000
8170 15866 1 0.16500 119244.000000
8171 13633 1 0.16500 119244.000000
8171 13802 1 0.16500 119244.000000
8172 14934 1 0.16500 119244.000000
8172 23013 1 0.16500 119244.000000
8173 17337 1 0.16500 119244.000000
8173 23013 1 0.16500 119244.000000
8174 15323 1 0.16500 119244.000000
8174 23013 1 0.16500 119244.000000
8175 13634 1 0.16500 119244.000000
8175 13899 1 0.16500 119244.000000
8176 13634 1 0.16500 119244.000000
8176 14747 1 0.16500 119244.000000
8177 13634 1 0.16500 119244.000000
8177 14663 1 0.16500 119244.000000
8178 13634 1 0.16500 119244.000000
8178 14588 1 0.16500 119244.000000
8179 13635 1 0.16500 119244.000000
8179 15351 1 0.16500 119244.000000
8180 13635 1 0.16500 119244.000000
8180 14601 1 0.16500 119244.000000
8181 13635 1 0.16500 119244.000000
8181 14365 1 0.16500 119244.000000
8182 13635 1 0.16500 119244.000000
8182 14957 1 0.16500 119244.000000
8183 13636 1 0.16500 119244.000000
8183 15574 1 0.16500 119244.000000
8184 13636 1 0.16500 119244.000000
8184 14383 1 0.16500 119244.000000
8185 13637 1 0.16500 119244.000000
8185 15493 1 0.16500 119244.000000
8186 13638 1 0.16500 119244.000000
8186 13696 1 0.16500 119244.000000
8187 13638 1 0.16500 119244.000000
8187 15939 1 0.16500 119244.000000
8188 13638 1 0.16500 119244.000000
8188 15204 1 0.16500 119244.000000
8189 13639 1 0.16500 119244.000000
8189 14770 1 0.16500 119244.000000
8190 13639 1 0.16500 119244.000000
8190 14595 1 0.16500 119244.000000
8191 13639 1 0.16500 119244.000000
8191 14723 1 0.16500 119244.000000
8192 13640 1 0.16500 119244.000000
8192 14164 1 0.16500 119244.000000
8193 13640 1 0.16500 119244.000000
8193 13752 1 0.16500 119244.000000
8194 13640 1 0.16500 119244.000000
8194 14661 1 0.16500 119244.000000
8195 13641 1 0.16500 119244.000000
8195 14621 1 0.16500 119244.000000
8196 13641 1 0.16500 119244.000000
8196 14013 1 0.16500 119244.000000
8197 13642 1 0.16500 119244.000000
8197 15073 1 0.16500 119244.000000
8198 16917 1 0.16500 119244.000000
8198 23373 1 0.16500 119244.000000
8199 13643 1 0.16500 119244.000000
8199 13666 1 0.16500 119244.000000
8200 13643 1 0.16500 119244.000000
8200 14783 1 0.16500 119244.000000
8201 13643 1 0.16500 119244.000000
8201 15854 1 0.16500 119244.000000
8202 13644 1 0.16500 119244.000000
8202 14998 1 0.16500 119244.000000
8203 13645 1 0.16500 119244.000000
8203 14216 1 0.16500 119244.000000
8204 13645 1 0.16500 119244.000000
8204 14165 1 0.16500 119244.000000
8205 13646 1 0.16500 119244.000000
8205 15903 1 0.16500 119244.000000
8206 13646 1 0.16500 119244.000000
8206 16108 1 0.16500 119244.000000
8207 13646 1 0.16500 119244.000000
8207 15302 1 0.16500 119244.000000
8208 13647 1 0.16500 119244.000000
8208 15688 1 0.16500 119244.000000
8209 13647 1 0.16500 119244.000000
8209 15616 1 0.16500 119244.000000
8210 13648 1 0.16500 119244.000000
8210 16098 1 0.16500 119244.000000
8211 12201 1 0.16500 119244.000000
8211 13859 1 0.16500 119244.000000
8212 18573 1 0.16500 119244.000000
8212 20865 1 0.16500 119244.000000
8213 13650 1 0.16500 119244.000000
8213 24282 1 0.16500 119244.000000
8214 13651 1 0.16500 119244.000000
8214 15226 1 0.16500 119244.000000
8215 13651 1 0.16500 119244.000000
8215 14360 1 0.16500 119244.000000
8216 14172 1 0.16500 119244.000000
8216 16120 1 0.16500 119244.000000
8217 13652 1 0.16500 119244.000000
8217 14172 1 0.16500 119244.000000
8218 13653 1 0.16500 119244.000000
8218 15985 1 0.16500 119244.000000
8219 13653 1 0.16500 119244.000000
8219 14439 1 0.16500 119244.000000
8220 13654 1 0.16500 119244.000000
8220 15297 1 0.16500 119244.000000
8221 13655 1 0.16500 119244.000000
8221 15462 1 0.16500 119244.000000
8222 15318 1 0.16500 119244.000000
8222 16931 1 0.16500 119244.000000
8223 13656 1 0.16500 119244.000000
8223 15311 1 0.16500 119244.000000
8224 13656 1 0.16500 119244.000000
8224 14872 1 0.16500 119244.000000
8225 13656 1 0.16500 119244.000000
8225 16191 1 0.16500 119244.000000
8226 13657 1 0.16500 119244.000000
8226 15800 1 0.16500 119244.000000
8227 13657 1 0.16500 119244.000000
8227 13877 1 0.16500 119244.000000
8228 13657 1 0.16500 119244.000000
8228 15830 1 0.16500 119244.000000
8229 13659 1 0.16500 119244.000000
8229 15032 1 0.16500 119244.000000
8230 13659 1 0.16500 119244.000000
8230 16152 1 0.16500 119244.000000
8231 13659 1 0.16500 119244.000000
8231 13841 1 0.16500 119244.000000
8232 13659 1 0.16500 119244.000000
8232 14327 1 0.16500 119244.000000
8233 13660 1 0.16500 119244.000000
8233 15582 1 0.16500 119244.000000
8234 13660 1 0.16500 119244.000000
8234 18261 1 0.16500 119244.000000
8235 13661 1 0.16500 119244.000000
8235 14443 1 0.16500 119244.000000
8236 13661 1 0.16500 119244.000000
8236 15772 1 0.16500 119244.000000
8237 23025 1 0.16500 119244.000000
8237 23445 1 0.16500 119244.000000
8238 13662 1 0.16500 119244.000000
8238 16102 1 0.16500 119244.000000
8239 13662 1 0.16500 119244.000000
8239 15220 1 0.16500 119244.000000
8240 14396 1 0.16500 119244.000000
8240 15997 1 0.16500 119244.000000
8241 13663 1 0.16500 119244.000000
8241 14660 1 0.16500 119244.000000
8242 13663 1 0.16500 119244.000000
8242 15997 1 0.16500 119244.000000
8243 13664 1 0.16500 119244.000000
8243 14591 1 0.16500 119244.000000
8244 13664 1 0.16500 119244.000000
8244 13817 1 0.16500 119244.000000
8245 13664 1 0.16500 119244.000000
8245 15175 1 0.16500 119244.000000
8246 14588 1 0.16500 119244.000000
8246 23037 1 0.16500 119244.000000
8247 13665 1 0.16500 119244.000000
8247 15113 1 0.16500 119244.000000
8248 13666 1 0.16500 119244.000000
8248 13994 1 0.16500 119244.000000
8249 13667 1 0.16500 119244.000000
8249 15067 1 0.16500 119244.000000
8250 13667 1 0.16500 119244.000000
8250 15731 1 0.16500 119244.000000
8251 13667 1 0.16500 119244.000000
8251 14656 1 0.16500 119244.000000
8252 13667 1 0.16500 119244.000000
8252 14018 1 0.16500 119244.000000
8253 13668 1 0.16500 119244.000000
8253 15484 1 0.16500 119244.000000
8254 13668 1 0.16500 119244.000000
8254 14119 1 0.16500 119244.000000
8255 13668 1 0.16500 119244.000000
8255 16183 1 0.16500 119244.000000
8256 13669 1 0.16500 119244.000000
8256 15188 1 0.16500 119244.000000
8257 13669 1 0.16500 119244.000000
8257 13774 1 0.16500 119244.000000
8258 13669 1 0.16500 119244.000000
8258 14088 1 0.16500 119244.000000
8259 15278 1 0.16500 119244.000000
8259 19281 1 0.16500 119244.000000
8260 13670 1 0.16500 119244.000000
8260 15088 1 0.16500 119244.000000
8261 13670 1 0.16500 119244.000000
8261 14871 1 0.16500 119244.000000
8262 23049 1 0.16500 119244.000000
8262 24435 1 0.16500 119244.000000
8263 13671 1 0.16500 119244.000000
8263 14107 1 0.16500 119244.000000
8264 13671 1 0.16500 119244.000000
8264 15241 1 0.16500 119244.000000
8265 14993 1 0.16500 119244.000000
8265 16973 1 0.16500 119244.000000
8266 13672 1 0.16500 119244.000000
8266 15626 1 0.16500 119244.000000
8267 13672 1 0.16500 119244.000000
8267 15726 1 0.16500 119244.000000
8268 13672 1 0.16500 119244.000000
8268 16201 1 0.16500 119244.000000
8269 13673 1 0.16500 119244.000000
8269 14686 1 0.16500 119244.000000
8270 13673 1 0.16500 119244.000000
8270 15748 1 0.16500 119244.000000
8271 13673 1 0.16500 119244.000000
8271 14010 1 0.16500 119244.000000
8272 13674 1 0.16500 119244.000000
8272 15441 1 0.16500 119244.000000
8273 13675 1 0.16500 119244.000000
8273 16212 1 0.16500 119244.000000
8274 13676 1 0.16500 119244.000000
8274 15691 1 0.16500 119244.000000
8275 13677 1 0.16500 119244.000000
8275 24381 1 0.16500 119244.000000
8276 15625 1 0.16500 119244.000000
8276 16987 1 0.16500 119244.000000
8277 12990 1 0.16500 119244.000000
8277 14211 1 0.16500 119244.000000
8278 13678 1 0.16500 119244.000000
8278 14956 1 0.16500 119244.000000
8279 12990 1 0.16500 119244.000000
8279 14664 1 0.16500 119244.000000
8280 13679 1 0.16500 119244.000000
8280 15896 1 0.16500 119244.000000
8281 13680 1 0.16500 119244.000000
8281 15794 1 0.16500 119244.000000
8282 13680 1 0.16500 119244.000000
8282 14012 1 0.16500 119244.000000
8283 14012 1 0.16500 119244.000000
8283 14436 1 0.16500 119244.000000
8284 13681 1 0.16500 119244.000000
8284 15413 1 0.16500 119244.000000
8285 13681 1 0.16500 119244.000000
8285 13970 1 0.16500 119244.000000
8286 13681 1 0.16500 119244.000000
8286 14680 1 0.16500 119244.000000
8287 13681 1 0.16500 119244.000000
8287 13879 1 0.16500 119244.000000
8288 14755 1 0.16500 119244.000000
8288 17001 1 0.16500 119244.000000
8289 17001 1 0.16500 119244.000000
8289 17323 1 0.16500 119244.000000
8290 13682 1 0.16500 119244.000000
8290 24704 1 0.16500 119244.000000
8291 13682 1 0.16500 119244.000000
8291 16148 1 0.16500 119244.000000
8292 13683 1 0.16500 119244.000000
8292 15126 1 0.16500 119244.000000
8293 13683 1 0.16500 119244.000000
8293 14110 1 0.16500 119244.000000
8294 21885 1 0.16500 119244.000000
8294 24114 1 0.16500 119244.000000
8295 13684 1 0.16500 119244.000000
8295 15761 1 0.16500 119244.000000
8296 13684 1 0.16500 119244.000000
8296 17799 1 0.16500 119244.000000
8297 13685 1 0.16500 119244.000000
8297 14278 1 0.16500 119244.000000
8298 15501 1 0.16500 119244.000000
8298 23085 1 0.16500 119244.000000
8299 13686 1 0.16500 119244.000000
8299 14647 1 0.16500 119244.000000
8300 13686 1 0.16500 119244.000000
8300 14300 1 0.16500 119244.000000
8301 13686 1 0.16500 119244.000000
8301 15113 1 0.16500 119244.000000
8302 13687 1 0.16500 119244.000000
8302 14539 1 0.16500 119244.000000
8303 13687 1 0.16500 119244.000000
8303 15839 1 0.16500 119244.000000
8304 13687 1 0.16500 119244.000000
8304 24456 1 0.16500 119244.000000
8305 13688 1 0.16500 119244.000000
8305 15287 1 0.16500 119244.000000
8306 13688 1 0.16500 119244.000000
8306 14323 1 0.16500 119244.000000
8307 13689 1 0.16500 119244.000000
8307 13929 1 0.16500 119244.000000
8308 13689 1 0.16500 119244.000000
8308 15902 1 0.16500 119244.000000
8309 13690 1 0.16500 119244.000000
8309 14966 1 0.16500 119244.000000
8310 13690 1 0.16500 119244.000000
8310 16056 1 0.16500 119244.000000
8311 13690 1 0.16500 119244.000000
8311 15918 1 0.16500 119244.000000
8312 13691 1 0.16500 119244.000000
8312 16186 1 0.16500 119244.000000
8313 13691 1 0.16500 119244.000000
8313 15038 1 0.16500 119244.000000
8314 12751 1 0.16500 119244.000000
8314 15916 1 0.16500 119244.000000
8315 14524 1 0.16500 119244.000000
8315 15038 1 0.16500 119244.000000
8316 13692 1 0.16500 119244.000000
8316 15411 1 0.16500 119244.000000
8317 13692 1 0.16500 119244.000000
8317 14881 1 0.16500 119244.000000
8318 13692 1 0.16500 119244.000000
8318 13806 1 0.16500 119244.000000
8319 13692 1 0.16500 119244.000000
8319 16081 1 0.16500 119244.000000
8320 13693 1 0.16500 119244.000000
8320 14159 1 0.16500 119244.000000
8321 13694 1 0.16500 119244.000000
8321 15765 1 0.16500 119244.000000
8322 13694 1 0.16500 119244.000000
8322 14061 1 0.16500 119244.000000
8323 13695 1 0.16500 119244.000000
8323 14324 1 0.16500 119244.000000
8324 13695 1 0.16500 119244.000000
8324 14292 1 0.16500 119244.000000
8325 13696 1 0.16500 119244.000000
8325 14761 1 0.16500 119244.000000
8326 13696 1 0.16500 119244.000000
8326 15932 1 0.16500 119244.000000
8327 13697 1 0.16500 119244.000000
8327 14463 1 0.16500 119244.000000
8328 13697 1 0.16500 119244.000000
8328 15426 1 0.16500 119244.000000
8329 13697 1 0.16500 119244.000000
8329 15076 1 0.16500 119244.000000
8330 11939 1 0.16500 119244.000000
8330 13697 1 0.16500 119244.000000
8331 23097 1 0.16500 119244.000000
8331 24066 1 0.16500 119244.000000
8332 16061 1 0.16500 119244.000000
8332 23097 1 0.16500 119244.000000
8333 13698 1 0.16500 119244.000000
8333 15812 1 0.16500 119244.000000
8334 13698 1 0.16500 119244.000000
8334 13972 1 0.16500 119244.000000
8335 13698 1 0.16500 119244.000000
8335 15861 1 0.16500 119244.000000
8336 13699 1 0.16500 119244.000000
8336 16183 1 0.16500 119244.000000
8337 13699 1 0.16500 119244.000000
8337 15210 1 0.16500 119244.000000
8338 13699 1 0.16500 119244.000000
8338 13798 1 0.16500 119244.000000
8339 13699 1 0.16500 119244.000000
8339 14664 1 0.16500 119244.000000
8340 13700 1 0.16500 119244.000000
8340 14261 1 0.16500 119244.000000
8341 13700 1 0.16500 119244.000000
8341 15117 1 0.16500 119244.000000
8342 13701 1 0.16500 119244.000000
8342 14563 1 0.16500 119244.000000
8343 13702 1 0.16500 119244.000000
8343 13791 1 0.16500 119244.000000
8344 13702 1 0.16500 119244.000000
8344 15432 1 0.16500 119244.000000
8345 13702 1 0.16500 119244.000000
8345 15460 1 0.16500 119244.000000
8346 13703 1 0.16500 119244.000000
8346 15866 1 0.16500 119244.000000
8347 13703 1 0.16500 119244.000000
8347 16084 1 0.16500 119244.000000
8348 13704 1 0.16500 119244.000000
8348 15070 1 0.16500 119244.000000
8349 13704 1 0.16500 119244.000000
8349 14802 1 0.16500 119244.000000
8350 13704 1 0.16500 119244.000000
8350 15081 1 0.16500 119244.000000
8351 13706 1 0.16500 119244.000000
8351 14843 1 0.16500 119244.000000
8352 13706 1 0.16500 119244.000000
8352 15864 1 0.16500 119244.000000
8353 13706 1 0.16500 119244.000000
8353 13784 1 0.16500 119244.000000
8354 15090 1 0.16500 119244.000000
8354 23109 1 0.16500 119244.000000
8355 13707 1 0.16500 119244.000000
8355 14678 1 0.16500 119244.000000
8356 13707 1 0.16500 119244.000000
8356 14231 1 0.16500 119244.000000
8357 13708 1 0.16500 119244.000000
8357 14217 1 0.16500 119244.000000
8358 13708 1 0.16500 119244.000000
8358 15850 1 0.16500 119244.000000
8359 13709 1 0.16500 119244.000000
8359 14795 1 0.16500 119244.000000
8360 13709 1 0.16500 119244.000000
8360 14033 1 0.16500 119244.000000
8361 13709 1 0.16500 119244.000000
8361 24576 1 0.16500 119244.000000
8362 13710 1 0.16500 119244.000000
8362 23991 1 0.16500 119244.000000
8363 13711 1 0.16500 119244.000000
8363 24162 1 0.16500 119244.000000
8364 13711 1 0.16500 119244.000000
8364 15234 1 0.16500 119244.000000
8365 13711 1 0.16500 119244.000000
8365 15962 1 0.16500 119244.000000
8366 13712 1 0.16500 119244.000000
8366 14078 1 0.16500 119244.000000
8367 13712 1 0.16500 119244.000000
8367 13738 1 0.16500 119244.000000
8368 23121 1 0.16500 119244.000000
8368 23805 1 0.16500 119244.000000
8369 13743 1 0.16500 119244.000000
8369 23121 1 0.16500 119244.000000
8370 14106 1 0.16500 119244.000000
8370 23121 1 0.16500 119244.000000
8371 17015 1 0.16500 119244.000000
8371 23337 1 0.16500 119244.000000
8372 13713 1 0.16500 119244.000000
8372 14529 1 0.16500 119244.000000
8373 15884 1 0.16500 119244.000000
8373 23025 1 0.16500 119244.000000
8374 13714 1 0.16500 119244.000000
8374 15789 1 0.16500 119244.000000
8375 13714 1 0.16500 119244.000000
8375 24105 1 0.16500 119244.000000
8376 15636 1 0.16500 119244.000000
8376 19221 1 0.16500 119244.000000
8377 13715 1 0.16500 119244.000000
8377 14189 1 0.16500 119244.000000
8378 13716 1 0.16500 119244.000000
8378 15662 1 0.16500 119244.000000
8379 13717 1 0.16500 119244.000000
8379 15438 1 0.16500 119244.000000
8380 13717 1 0.16500 119244.000000
8380 15959 1 0.16500 119244.000000
8381 14035 1 0.16500 119244.000000
8381 23133 1 0.16500 119244.000000
8382 13718 1 0.16500 119244.000000
8382 16169 1 0.16500 119244.000000
8383 11527 1 0.16500 119244.000000
8383 13718 1 0.16500 119244.000000
8384 13719 1 0.16500 119244.000000
8384 14572 1 0.16500 119244.000000
8385 13720 1 0.16500 119244.000000
8385 14001 1 0.16500 119244.000000
8386 13721 1 0.16500 119244.000000
8386 13838 1 0.16500 119244.000000
8387 13721 1 0.16500 119244.000000
8387 15618 1 0.16500 119244.000000
8388 13721 1 0.16500 119244.000000
8388 14873 1 0.16500 119244.000000
8389 13722 1 0.16500 119244.000000
8389 23793 1 0.16500 119244.000000
8390 13723 1 0.16500 119244.000000
8390 14785 1 0.16500 119244.000000
8391 13723 1 0.16500 119244.000000
8391 24135 1 0.16500 119244.000000
8392 13724 1 0.16500 119244.000000
8392 14243 1 0.16500 119244.000000
8393 13724 1 0.16500 119244.000000
8393 15177 1 0.16500 119244.000000
8394 13725 1 0.16500 119244.000000
8394 16159 1 0.16500 119244.000000
8395 13725 1 0.16500 119244.000000
8395 14092 1 0.16500 119244.000000
8396 13725 1 0.16500 119244.000000
8396 14640 1 0.16500 119244.000000
8397 13726 1 0.16500 119244.000000
8397 14050 1 0.16500 119244.000000
8398 13726 1 0.16500 119244.000000
8398 15994 1 0.16500 119244.000000
8399 13727 1 0.16500 119244.000000
8399 15469 1 0.16500 119244.000000
8400 13727 1 0.16500 119244.000000
8400 14834 1 0.16500 119244.000000
8401 13728 1 0.16500 119244.000000
8401 16031 1 0.16500 119244.000000
8402 13728 1 0.16500 119244.000000
8402 15670 1 0.16500 119244.000000
8403 13730 1 0.16500 119244.000000
8403 15705 1 0.16500 119244.000000
8404 14376 1 0.16500 119244.000000
8404 23145 1 0.16500 119244.000000
8405 18303 1 0.16500 119244.000000
8405 23145 1 0.16500 119244.000000
8406 13731 1 0.16500 119244.000000
8406 16168 1 0.16500 119244.000000
8407 13731 1 0.16500 119244.000000
8407 23493 1 0.16500 119244.000000
8408 13732 1 0.16500 119244.000000
8408 15010 1 0.16500 119244.000000
8409 13732 1 0.16500 119244.000000
8409 14826 1 0.16500 119244.000000
8410 13732 1 0.16500 119244.000000
8410 14256 1 0.16500 119244.000000
8411 13733 1 0.16500 119244.000000
8411 15496 1 0.16500 119244.000000
8412 18777 1 0.16500 119244.000000
8412 24659 1 0.16500 119244.000000
8413 13734 1 0.16500 119244.000000
8413 23601 1 0.16500 119244.000000
8414 13734 1 0.16500 119244.000000
8414 13799 1 0.16500 119244.000000
8415 13735 1 0.16500 119244.000000
8415 14732 1 0.16500 119244.000000
8416 13735 1 0.16500 119244.000000
8416 15298 1 0.16500 119244.000000
8417 13735 1 0.16500 119244.000000
8417 15527 1 0.16500 119244.000000
8418 13736 1 0.16500 119244.000000
8418 14962 1 0.16500 119244.000000
8419 13736 1 0.16500 119244.000000
8419 13887 1 0.16500 119244.000000
8420 13736 1 0.16500 119244.000000
8420 15865 1 0.16500 119244.000000
8421 12575 1 0.16500 119244.000000
8421 15023 1 0.16500 119244.000000
8422 13737 1 0.16500 119244.000000
8422 14342 1 0.16500 119244.000000
8423 13738 1 0.16500 119244.000000
8423 15376 1 0.16500 119244.000000
8424 13738 1 0.16500 119244.000000
8424 14057 1 0.16500 119244.000000
8425 13738 1 0.16500 119244.000000
8425 15018 1 0.16500 119244.000000
8426 15960 1 0.16500 119244.000000
8426 23952 1 0.16500 119244.000000
8427 13739 1 0.16500 119244.000000
8427 15960 1 0.16500 119244.000000
8428 14263 1 0.16500 119244.000000
8428 15960 1 0.16500 119244.000000
8429 15663 1 0.16500 119244.000000
8429 15922 1 0.16500 119244.000000
8430 13740 1 0.16500 119244.000000
8430 14447 1 0.16500 119244.000000
8431 13740 1 0.16500 119244.000000
8431 15922 1 0.16500 119244.000000
8432 13741 1 0.16500 119244.000000
8432 15919 1 0.16500 119244.000000
8433 13741 1 0.16500 119244.000000
8433 14853 1 0.16500 119244.000000
8434 13742 1 0.16500 119244.000000
8434 15868 1 0.16500 119244.000000
8435 13742 1 0.16500 119244.000000
8435 14885 1 0.16500 119244.000000
8436 15024 1 0.16500 119244.000000
8436 15868 1 0.16500 119244.000000
8437 14631 1 0.16500 119244.000000
8437 15254 1 0.16500 119244.000000
8438 13743 1 0.16500 119244.000000
8438 17757 1 0.16500 119244.000000
8439 13743 1 0.16500 119244.000000
8439 15254 1 0.16500 119244.000000
8440 13744 1 0.16500 119244.000000
8440 15398 1 0.16500 119244.000000
8441 13744 1 0.16500 119244.000000
8441 14219 1 0.16500 119244.000000
8442 13745 1 0.16500 119244.000000
8442 14975 1 0.16500 119244.000000
8443 13746 1 0.16500 119244.000000
8443 14478 1 0.16500 119244.000000
8444 13747 1 0.16500 119244.000000
8444 24510 1 0.16500 119244.000000
8445 13748 1 0.16500 119244.000000
8445 13780 1 0.16500 119244.000000
8446 13748 1 0.16500 119244.000000
8446 15763 1 0.16500 119244.000000
8447 13748 1 0.16500 119244.000000
8447 14551 1 0.16500 119244.000000
8448 13749 1 0.16500 119244.000000
8448 14847 1 0.16500 119244.000000
8449 13749 1 0.16500 119244.000000
8449 15410 1 0.16500 119244.000000
8450 15410 1 0.16500 119244.000000
8450 15528 1 0.16500 119244.000000
8451 13750 1 0.16500 119244.000000
8451 15766 1 0.16500 119244.000000
8452 13750 1 0.16500 119244.000000
8452 14188 1 0.16500 119244.000000
8453 13750 1 0.16500 119244.000000
8453 14996 1 0.16500 119244.000000
8454 15766 1 0.16500 119244.000000
8454 15817 1 0.16500 119244.000000
8455 13751 1 0.16500 119244.000000
8455 14687 1 0.16500 119244.000000
8456 11444 1 0.16500 119244.000000
8456 15163 1 0.16500 119244.000000
8457 13753 1 0.16500 119244.000000
8457 15325 1 0.16500 119244.000000
8458 13753 1 0.16500 119244.000000
8458 14849 1 0.16500 119244.000000
8459 17043 1 0.16500 119244.000000
8459 24357 1 0.16500 119244.000000
8460 13754 1 0.16500 119244.000000
8460 15968 1 0.16500 119244.000000
8461 14098 1 0.16500 119244.000000
8461 15968 1 0.16500 119244.000000
8462 13755 1 0.16500 119244.000000
8462 14932 1 0.16500 119244.000000
8463 13755 1 0.16500 119244.000000
8463 14365 1 0.16500 119244.000000
8464 13755 1 0.16500 119244.000000
8464 14877 1 0.16500 119244.000000
8465 13756 1 0.16500 119244.000000
8465 14388 1 0.16500 119244.000000
8466 13756 1 0.16500 119244.000000
8466 15200 1 0.16500 119244.000000
8467 13757 1 0.16500 119244.000000
8467 16132 1 0.16500 119244.000000
8468 13758 1 0.16500 119244.000000
8468 14853 1 0.16500 119244.000000
8469 13375 1 0.16500 119244.000000
8469 13758 1 0.16500 119244.000000
8470 13758 1 0.16500 119244.000000
8470 15741 1 0.16500 119244.000000
8471 13758 1 0.16500 119244.000000
8471 15083 1 0.16500 119244.000000
8472 13759 1 0.16500 119244.000000
8472 15664 1 0.16500 119244.000000
8473 15877 1 0.16500 119244.000000
8473 23157 1 0.16500 119244.000000
8474 14860 1 0.16500 119244.000000
8474 23157 1 0.16500 119244.000000
8475 13761 1 0.16500 119244.000000
8475 14675 1 0.16500 119244.000000
8476 13762 1 0.16500 119244.000000
8476 13849 1 0.16500 119244.000000
8477 13762 1 0.16500 119244.000000
8477 15561 1 0.16500 119244.000000
8478 13763 1 0.16500 119244.000000
8478 14715 1 0.16500 119244.000000
8479 13763 1 0.16500 119244.000000
8479 16165 1 0.16500 119244.000000
8480 13763 1 0.16500 119244.000000
8480 16146 1 0.16500 119244.000000
8481 13764 1 0.16500 119244.000000
8481 14227 1 0.16500 119244.000000
8482 13764 1 0.16500 119244.000000
8482 15055 1 0.16500 119244.000000
8483 13765 1 0.16500 119244.000000
8483 23910 1 0.16500 119244.000000
8484 13766 1 0.16500 119244.000000
8484 13847 1 0.16500 119244.000000
8485 13766 1 0.16500 119244.000000
8485 14571 1 0.16500 119244.000000
8486 13767 1 0.16500 119244.000000
8486 15744 1 0.16500 119244.000000
8487 13767 1 0.16500 119244.000000
8487 14551 1 0.16500 119244.000000
8488 13767 1 0.16500 119244.000000
8488 16014 1 0.16500 119244.000000
8489 13768 1 0.16500 119244.000000
8489 14594 1 0.16500 119244.000000
8490 13768 1 0.16500 119244.000000
8490 15692 1 0.16500 119244.000000
8491 13768 1 0.16500 119244.000000
8491 14487 1 0.16500 119244.000000
8492 15571 1 0.16500 119244.000000
8492 23169 1 0.16500 119244.000000
8493 13769 1 0.16500 119244.000000
8493 24168 1 0.16500 119244.000000
8494 13769 1 0.16500 119244.000000
8494 24027 1 0.16500 119244.000000
8495 13770 1 0.16500 119244.000000
8495 15748 1 0.16500 119244.000000
8496 13770 1 0.16500 119244.000000
8496 14473 1 0.16500 119244.000000
8497 14904 1 0.16500 119244.000000
8497 18289 1 0.16500 119244.000000
8498 13771 1 0.16500 119244.000000
8498 24267 1 0.16500 119244.000000
8499 14097 1 0.16500 119244.000000
8499 14904 1 0.16500 119244.000000
8500 13771 1 0.16500 119244.000000
8500 14904 1 0.16500 119244.000000
8501 14118 1 0.16500 119244.000000
8501 17057 1 0.16500 119244.000000
8502 13772 1 0.16500 119244.000000
8502 14400 1 0.16500 119244.000000
8503 13772 1 0.16500 119244.000000
8503 14100 1 0.16500 119244.000000
8504 13772 1 0.16500 119244.000000
8504 13866 1 0.16500 119244.000000
8505 11987 1 0.16500 119244.000000
8505 15123 1 0.16500 119244.000000
8506 11987 1 0.16500 119244.000000
8506 13788 1 0.16500 119244.000000
8507 13774 1 0.16500 119244.000000
8507 14920 1 0.16500 119244.000000
8508 13775 1 0.16500 119244.000000
8508 15153 1 0.16500 119244.000000
8509 13775 1 0.16500 119244.000000
8509 15604 1 0.16500 119244.000000
8510 13775 1 0.16500 119244.000000
8510 15086 1 0.16500 119244.000000
8511 23193 1 0.16500 119244.000000
8511 24764 1 0.16500 119244.000000
8512 15276 1 0.16500 119244.000000
8512 23193 1 0.16500 119244.000000
8513 13776 1 0.16500 119244.000000
8513 14824 1 0.16500 119244.000000
8514 13777 1 0.16500 119244.000000
8514 15331 1 0.16500 119244.000000
8515 13777 1 0.16500 119244.000000
8515 14562 1 0.16500 119244.000000
8516 13777 1 0.16500 119244.000000
8516 16081 1 0.16500 119244.000000
8517 13778 1 0.16500 119244.000000
8517 15996 1 0.16500 119244.000000
8518 13779 1 0.16500 119244.000000
8518 16198 1 0.16500 119244.000000
8519 13780 1 0.16500 119244.000000
8519 14873 1 0.16500 119244.000000
8520 23205 1 0.16500 119244.000000
8520 24744 1 0.16500 119244.000000
8521 13781 1 0.16500 119244.000000
8521 14352 1 0.16500 119244.000000
8522 13781 1 0.16500 119244.000000
8522 15667 1 0.16500 119244.000000
8523 13782 1 0.16500 119244.000000
8523 14572 1 0.16500 119244.000000
8524 13782 1 0.16500 119244.000000
8524 16193 1 0.16500 119244.000000
8525 11280 1 0.16500 119244.000000
8525 14138 1 0.16500 119244.000000
8526 11280 1 0.16500 119244.000000
8526 14407 1 0.16500 119244.000000
8527 11280 1 0.16500 119244.000000
8527 14008 1 0.16500 119244.000000
8528 13784 1 0.16500 119244.000000
8528 13849 1 0.16500 119244.000000
8529 13784 1 0.16500 119244.000000
8529 14420 1 0.16500 119244.000000
8530 13785 1 0.16500 119244.000000
8530 14038 1 0.16500 119244.000000
8531 13785 1 0.16500 119244.000000
8531 15480 1 0.16500 119244.000000
8532 13786 1 0.16500 119244.000000
8532 15929 1 0.16500 119244.000000
8533 13786 1 0.16500 119244.000000
8533 15097 1 0.16500 119244.000000
8534 13786 1 0.16500 119244.000000
8534 16010 1 0.16500 119244.000000
8535 13787 1 0.16500 119244.000000
8535 15598 1 0.16500 119244.000000
8536 13787 1 0.16500 119244.000000
8536 14980 1 0.16500 119244.000000
8537 13787 1 0.16500 119244.000000
8537 15895 1 0.16500 119244.000000
8538 13788 1 0.16500 119244.000000
8538 15825 1 0.16500 119244.000000
8539 13788 1 0.16500 119244.000000
8539 14105 1 0.16500 119244.000000
8540 13789 1 0.16500 119244.000000
8540 15776 1 0.16500 119244.000000
8541 13789 1 0.16500 119244.000000
8541 15230 1 0.16500 119244.000000
8542 13789 1 0.16500 119244.000000
8542 16089 1 0.16500 119244.000000
8543 13790 1 0.16500 119244.000000
8543 14533 1 0.16500 119244.000000
8544 13790 1 0.16500 119244.000000
8544 15611 1 0.16500 119244.000000
8545 13790 1 0.16500 119244.000000
8545 13898 1 0.16500 119244.000000
8546 13791 1 0.16500 119244.000000
8546 14986 1 0.16500 119244.000000
8547 13792 1 0.16500 119244.000000
8547 14816 1 0.16500 119244.000000
8548 13792 1 0.16500 119244.000000
8548 15220 1 0.16500 119244.000000
8549 13792 1 0.16500 119244.000000
8549 14009 1 0.16500 119244.000000
8550 15553 1 0.16500 119244.000000
8550 17099 1 0.16500 119244.000000
8551 13793 1 0.16500 119244.000000
8551 14521 1 0.16500 119244.000000
8552 13793 1 0.16500 119244.000000
8552 14841 1 0.16500 119244.000000
8553 13793 1 0.16500 119244.000000
8553 14417 1 0.16500 119244.000000
8554 13795 1 0.16500 119244.000000
8554 16117 1 0.16500 119244.000000
8555 13795 1 0.16500 119244.000000
8555 13825 1 0.16500 119244.000000
8556 13796 1 0.16500 119244.000000
8556 15990 1 0.16500 119244.000000
8557 13796 1 0.16500 119244.000000
8557 16077 1 0.16500 119244.000000
8558 13797 1 0.16500 119244.000000
8558 14678 1 0.16500 119244.000000
8559 13797 1 0.16500 119244.000000
8559 15974 1 0.16500 119244.000000
8560 13798 1 0.16500 119244.000000
8560 15607 1 0.16500 119244.000000
8561 13798 1 0.16500 119244.000000
8561 15719 1 0.16500 119244.000000
8562 15198 1 0.16500 119244.000000
8562 17113 1 0.16500 119244.000000
8563 13799 1 0.16500 119244.000000
8563 15992 1 0.16500 119244.000000
8564 13800 1 0.16500 119244.000000
8564 15994 1 0.16500 119244.000000
8565 13800 1 0.16500 119244.000000
8565 15011 1 0.16500 119244.000000
8566 13801 1 0.16500 119244.000000
8566 15724 1 0.16500 119244.000000
8567 13802 1 0.16500 119244.000000
8567 14871 1 0.16500 119244.000000
8568 13803 1 0.16500 119244.000000
8568 14335 1 0.16500 119244.000000
8569 13803 1 0.16500 119244.000000
8569 24393 1 0.16500 119244.000000
8570 13804 1 0.16500 119244.000000
8570 14929 1 0.16500 119244.000000
8571 13804 1 0.16500 119244.000000
8571 16178 1 0.16500 119244.000000
8572 13804 1 0.16500 119244.000000
8572 15433 1 0.16500 119244.000000
8573 14168 1 0.16500 119244.000000
8573 23217 1 0.16500 119244.000000
8574 15674 1 0.16500 119244.000000
8574 23217 1 0.16500 119244.000000
8575 13806 1 0.16500 119244.000000
8575 14950 1 0.16500 119244.000000
8576 13807 1 0.16500 119244.000000
8576 15987 1 0.16500 119244.000000
8577 13807 1 0.16500 119244.000000
8577 15474 1 0.16500 119244.000000
8578 13807 1 0.16500 119244.000000
8578 16019 1 0.16500 119244.000000
8579 13807 1 0.16500 119244.000000
8579 13881 1 0.16500 119244.000000
8580 13808 1 0.16500 119244.000000
8580 15374 1 0.16500 119244.000000
8581 11633 1 0.16500 119244.000000
8581 13808 1 0.16500 119244.000000
8582 13809 1 0.16500 119244.000000
8582 14959 1 0.16500 119244.000000
8583 13810 1 0.16500 119244.000000
8583 15674 1 0.16500 119244.000000
8584 13810 1 0.16500 119244.000000
8584 15221 1 0.16500 119244.000000
8585 11470 1 0.16500 119244.000000
8585 13810 1 0.16500 119244.000000
8586 13811 1 0.16500 119244.000000
8586 14738 1 0.16500 119244.000000
8587 13811 1 0.16500 119244.000000
8587 14932 1 0.16500 119244.000000
8588 13812 1 0.16500 119244.000000
8588 24474 1 0.16500 119244.000000
8589 13812 1 0.16500 119244.000000
8589 15206 1 0.16500 119244.000000
8590 13813 1 0.16500 119244.000000
8590 15290 1 0.16500 119244.000000
8591 13813 1 0.16500 119244.000000
8591 14800 1 0.16500 119244.000000
8592 13813 1 0.16500 119244.000000
8592 15137 1 0.16500 119244.000000
8593 12641 1 0.16500 119244.000000
8593 14333 1 0.16500 119244.000000
8594 13814 1 0.16500 119244.000000
8594 13851 1 0.16500 119244.000000
8595 13814 1 0.16500 119244.000000
8595 16012 1 0.16500 119244.000000
8596 13815 1 0.16500 119244.000000
8596 15340 1 0.16500 119244.000000
8597 13815 1 0.16500 119244.000000
8597 15415 1 0.16500 119244.000000
8598 13815 1 0.16500 119244.000000
8598 15732 1 0.16500 119244.000000
8599 13816 1 0.16500 119244.000000
8599 14747 1 0.16500 119244.000000
8600 13816 1 0.16500 119244.000000
8600 15196 1 0.16500 119244.000000
8601 13816 1 0.16500 119244.000000
8601 23769 1 0.16500 119244.000000
8602 13817 1 0.16500 119244.000000
8602 14470 1 0.16500 119244.000000
8603 13817 1 0.16500 119244.000000
8603 15956 1 0.16500 119244.000000
8604 13819 1 0.16500 119244.000000
8604 14818 1 0.16500 119244.000000
8605 13820 1 0.16500 119244.000000
8605 16000 1 0.16500 119244.000000
8606 13820 1 0.16500 119244.000000
8606 15802 1 0.16500 119244.000000
8607 13820 1 0.16500 119244.000000
8607 16087 1 0.16500 119244.000000
8608 13820 1 0.16500 119244.000000
8608 15505 1 0.16500 119244.000000
8609 13663 1 0.16500 119244.000000
8609 13821 1 0.16500 119244.000000
8610 13822 1 0.16500 119244.000000
8610 15795 1 0.16500 119244.000000
8611 13822 1 0.16500 119244.000000
8611 15537 1 0.16500 119244.000000
8612 11672 1 0.16500 119244.000000
8612 15827 1 0.16500 119244.000000
8613 13823 1 0.16500 119244.000000
8613 15788 1 0.16500 119244.000000
8614 13823 1 0.16500 119244.000000
8614 15537 1 0.16500 119244.000000
8615 13824 1 0.16500 119244.000000
8615 14807 1 0.16500 119244.000000
8616 13824 1 0.16500 119244.000000
8616 14275 1 0.16500 119244.000000
8617 17127 1 0.16500 119244.000000
8617 17967 1 0.16500 119244.000000
8618 14433 1 0.16500 119244.000000
8618 17127 1 0.16500 119244.000000
8619 13825 1 0.16500 119244.000000
8619 24528 1 0.16500 119244.000000
8620 13825 1 0.16500 119244.000000
8620 14725 1 0.16500 119244.000000
8621 17141 1 0.16500 119244.000000
8621 24255 1 0.16500 119244.000000
8622 11378 1 0.16500 119244.000000
8622 14581 1 0.16500 119244.000000
8623 13826 1 0.16500 119244.000000
8623 14199 1 0.16500 119244.000000
8624 13826 1 0.16500 119244.000000
8624 15260 1 0.16500 119244.000000
8625 13827 1 0.16500 119244.000000
8625 15568 1 0.16500 119244.000000
8626 13828 1 0.16500 119244.000000
8626 14759 1 0.16500 119244.000000
8627 13828 1 0.16500 119244.000000
8627 16150 1 0.16500 119244.000000
8628 13828 1 0.16500 119244.000000
8628 13849 1 0.16500 119244.000000
8629 13828 1 0.16500 119244.000000
8629 14843 1 0.16500 119244.000000
8630 13829 1 0.16500 119244.000000
8630 15515 1 0.16500 119244.000000
8631 13830 1 0.16500 119244.000000
8631 13965 1 0.16500 119244.000000
8632 13830 1 0.16500 119244.000000
8632 14283 1 0.16500 119244.000000
8633 13830 1 0.16500 119244.000000
8633 15301 1 0.16500 119244.000000
8634 18247 1 0.16500 119244.000000
8634 23229 1 0.16500 119244.000000
8635 17393 1 0.16500 119244.000000
8635 23229 1 0.16500 119244.000000
8636 15225 1 0.16500 119244.000000
8636 23229 1 0.16500 119244.000000
8637 14592 1 0.16500 119244.000000
8637 14665 1 0.16500 119244.000000
8638 14413 1 0.16500 119244.000000
8638 14665 1 0.16500 119244.000000
8639 13831 1 0.16500 119244.000000
8639 14665 1 0.16500 119244.000000
8640 13832 1 0.16500 119244.000000
8640 15652 1 0.16500 119244.000000
8641 13833 1 0.16500 119244.000000
8641 15146 1 0.16500 119244.000000
8642 13833 1 0.16500 119244.000000
8642 13931 1 0.16500 119244.000000
8643 13834 1 0.16500 119244.000000
8643 14957 1 0.16500 119244.000000
8644 13834 1 0.16500 119244.000000
8644 15174 1 0.16500 119244.000000
8645 13835 1 0.16500 119244.000000
8645 14696 1 0.16500 119244.000000
8646 13835 1 0.16500 119244.000000
8646 14706 1 0.16500 119244.000000
8647 15759 1 0.16500 119244.000000
8647 23241 1 0.16500 119244.000000
8648 15786 1 0.16500 119244.000000
8648 23241 1 0.16500 119244.000000
8649 13836 1 0.16500 119244.000000
8649 14805 1 0.16500 119244.000000
8650 13836 1 0.16500 119244.000000
8650 15371 1 0.16500 119244.000000
8651 13837 1 0.16500 119244.000000
8651 15292 1 0.16500 119244.000000
8652 13838 1 0.16500 119244.000000
8652 14229 1 0.16500 119244.000000
8653 13839 1 0.16500 119244.000000
8653 15549 1 0.16500 119244.000000
8654 13839 1 0.16500 119244.000000
8654 14835 1 0.16500 119244.000000
8655 13840 1 0.16500 119244.000000
8655 14789 1 0.16500 119244.000000
8656 13840 1 0.16500 119244.000000
8656 15774 1 0.16500 119244.000000
8657 23253 1 0.16500 119244.000000
8657 24018 1 0.16500 119244.000000
8658 23253 1 0.16500 119244.000000
8658 23895 1 0.16500 119244.000000
8659 13841 1 0.16500 119244.000000
8659 14914 1 0.16500 119244.000000
8660 13842 1 0.16500 119244.000000
8660 14228 1 0.16500 119244.000000
8661 13842 1 0.16500 119244.000000
8661 15453 1 0.16500 119244.000000
8662 13843 1 0.16500 119244.000000
8662 14732 1 0.16500 119244.000000
8663 13843 1 0.16500 119244.000000
8663 15967 1 0.16500 119244.000000
8664 12773 1 0.16500 119244.000000
8664 13843 1 0.16500 119244.000000
8665 13843 1 0.16500 119244.000000
8665 14312 1 0.16500 119244.000000
8666 13930 1 0.16500 119244.000000
8666 15945 1 0.16500 119244.000000
8667 13930 1 0.16500 119244.000000
8667 14722 1 0.16500 119244.000000
8668 13844 1 0.16500 119244.000000
8668 15045 1 0.16500 119244.000000
8669 13845 1 0.16500 119244.000000
8669 14991 1 0.16500 119244.000000
8670 13846 1 0.16500 119244.000000
8670 16048 1 0.16500 119244.000000
8671 13846 1 0.16500 119244.000000
8671 15947 1 0.16500 119244.000000
8672 16149 1 0.16500 119244.000000
8672 23265 1 0.16500 119244.000000
8673 13848 1 0.16500 119244.000000
8673 14674 1 0.16500 119244.000000
8674 13848 1 0.16500 119244.000000
8674 13912 1 0.16500 119244.000000
8675 11273 1 0.16500 119244.000000
8675 13850 1 0.16500 119244.000000
8676 13850 1 0.16500 119244.000000
8676 15927 1 0.16500 119244.000000
8677 13850 1 0.16500 119244.000000
8677 15122 1 0.16500 119244.000000
8678 13851 1 0.16500 119244.000000
8678 14461 1 0.16500 119244.000000
8679 14865 1 0.16500 119244.000000
8679 15435 1 0.16500 119244.000000
8680 13852 1 0.16500 119244.000000
8680 15435 1 0.16500 119244.000000
8681 13853 1 0.16500 119244.000000
8681 14820 1 0.16500 119244.000000
8682 13853 1 0.16500 119244.000000
8682 14917 1 0.16500 119244.000000
8683 13853 1 0.16500 119244.000000
8683 15510 1 0.16500 119244.000000
8684 13853 1 0.16500 119244.000000
8684 14334 1 0.16500 119244.000000
8685 13854 1 0.16500 119244.000000
8685 14727 1 0.16500 119244.000000
8686 13855 1 0.16500 119244.000000
8686 14443 1 0.16500 119244.000000
8687 13855 1 0.16500 119244.000000
8687 15958 1 0.16500 119244.000000
8688 13856 1 0.16500 119244.000000
8688 16173 1 0.16500 119244.000000
8689 13856 1 0.16500 119244.000000
8689 15354 1 0.16500 119244.000000
8690 13857 1 0.16500 119244.000000
8690 15618 1 0.16500 119244.000000
8691 13858 1 0.16500 119244.000000
8691 15802 1 0.16500 119244.000000
8692 13858 1 0.16500 119244.000000
8692 14353 1 0.16500 119244.000000
8693 13858 1 0.16500 119244.000000
8693 16000 1 0.16500 119244.000000
8694 13858 1 0.16500 119244.000000
8694 15202 1 0.16500 119244.000000
8695 13859 1 0.16500 119244.000000
8695 14173 1 0.16500 119244.000000
8696 13860 1 0.16500 119244.000000
8696 14552 1 0.16500 119244.000000
8697 13861 1 0.16500 119244.000000
8697 16080 1 0.16500 119244.000000
8698 13862 1 0.16500 119244.000000
8698 15627 1 0.16500 119244.000000
8699 13862 1 0.16500 119244.000000
8699 14072 1 0.16500 119244.000000
8700 13863 1 0.16500 119244.000000
8700 15515 1 0.16500 119244.000000
8701 13863 1 0.16500 119244.000000
8701 14168 1 0.16500 119244.000000
8702 13864 1 0.16500 119244.000000
8702 14459 1 0.16500 119244.000000
8703 13864 1 0.16500 119244.000000
8703 14368 1 0.16500 119244.000000
8704 13865 1 0.16500 119244.000000
8704 15170 1 0.16500 119244.000000
8705 13865 1 0.16500 119244.000000
8705 15135 1 0.16500 119244.000000
8706 13866 1 0.16500 119244.000000
8706 15474 1 0.16500 119244.000000
8707 13868 1 0.16500 119244.000000
8707 15307 1 0.16500 119244.000000
8708 13868 1 0.16500 119244.000000
8708 15342 1 0.16500 119244.000000
8709 13868 1 0.16500 119244.000000
8709 24396 1 0.16500 119244.000000
8710 13869 1 0.16500 119244.000000
8710 15248 1 0.16500 119244.000000
8711 13869 1 0.16500 119244.000000
8711 13888 1 0.16500 119244.000000
8712 13870 1 0.16500 119244.000000
8712 15773 1 0.16500 119244.000000
8713 13871 1 0.16500 119244.000000
8713 15399 1 0.16500 119244.000000
8714 13871 1 0.16500 119244.000000
8714 14882 1 0.16500 119244.000000
8715 13872 1 0.16500 119244.000000
8715 16155 1 0.16500 119244.000000
8716 13873 1 0.16500 119244.000000
8716 15491 1 0.16500 119244.000000
8717 13873 1 0.16500 119244.000000
8717 14777 1 0.16500 119244.000000
8718 13873 1 0.16500 119244.000000
8718 15249 1 0.16500 119244.000000
8719 13874 1 0.16500 119244.000000
8719 14839 1 0.16500 119244.000000
8720 13874 1 0.16500 119244.000000
8720 15921 1 0.16500 119244.000000
8721 13875 1 0.16500 119244.000000
8721 14095 1 0.16500 119244.000000
8722 13875 1 0.16500 119244.000000
8722 14898 1 0.16500 119244.000000
8723 13876 1 0.16500 119244.000000
8723 15422 1 0.16500 119244.000000
8724 13876 1 0.16500 119244.000000
8724 14688 1 0.16500 119244.000000
8725 13876 1 0.16500 119244.000000
8725 17701 1 0.16500 119244.000000
8726 13877 1 0.16500 119244.000000
8726 14292 1 0.16500 119244.000000
8727 13877 1 0.16500 119244.000000
8727 14792 1 0.16500 119244.000000
8728 13878 1 0.16500 119244.000000
8728 15310 1 0.16500 119244.000000
8729 11316 1 0.16500 119244.000000
8729 13878 1 0.16500 119244.000000
8730 13878 1 0.16500 119244.000000
8730 15210 1 0.16500 119244.000000
8731 15836 1 0.16500 119244.000000
8731 23277 1 0.16500 119244.000000
8732 15735 1 0.16500 119244.000000
8732 23277 1 0.16500 119244.000000
8733 13879 1 0.16500 119244.000000
8733 14536 1 0.16500 119244.000000
8734 13880 1 0.16500 119244.000000
8734 15937 1 0.16500 119244.000000
8735 13103 1 0.16500 119244.000000
8735 16071 1 0.16500 119244.000000
8736 13881 1 0.16500 119244.000000
8736 15395 1 0.16500 119244.000000
8737 13882 1 0.16500 119244.000000
8737 14070 1 0.16500 119244.000000
8738 13883 1 0.16500 119244.000000
8738 16016 1 0.16500 119244.000000
8739 13883 1 0.16500 119244.000000
8739 16083 1 0.16500 119244.000000
8740 13883 1 0.16500 119244.000000
8740 15579 1 0.16500 119244.000000
8741 13884 1 0.16500 119244.000000
8741 14808 1 0.16500 119244.000000
8742 13885 1 0.16500 119244.000000
8742 15258 1 0.16500 119244.000000
8743 13885 1 0.16500 119244.000000
8743 15052 1 0.16500 119244.000000
8744 13886 1 0.16500 119244.000000
8744 14311 1 0.16500 119244.000000
8745 13886 1 0.16500 119244.000000
8745 15737 1 0.16500 119244.000000
8746 13887 1 0.16500 119244.000000
8746 15320 1 0.16500 119244.000000
8747 13889 1 0.16500 119244.000000
8747 13903 1 0.16500 119244.000000
8748 13889 1 0.16500 119244.000000
8748 14742 1 0.16500 119244.000000
8749 13889 1 0.16500 119244.000000
8749 15106 1 0.16500 119244.000000
8750 13890 1 0.16500 119244.000000
8750 15334 1 0.16500 119244.000000
8751 13891 1 0.16500 119244.000000
8751 14742 1 0.16500 119244.000000
8752 13892 1 0.16500 119244.000000
8752 13895 1 0.16500 119244.000000
8753 13892 1 0.16500 119244.000000
8753 14080 1 0.16500 119244.000000
8754 13893 1 0.16500 119244.000000
8754 14936 1 0.16500 119244.000000
8755 13893 1 0.16500 119244.000000
8755 13973 1 0.16500 119244.000000
8756 13893 1 0.16500 119244.000000
8756 15721 1 0.16500 119244.000000
8757 13895 1 0.16500 119244.000000
8757 15499 1 0.16500 119244.000000
8758 13896 1 0.16500 119244.000000
8758 14991 1 0.16500 119244.000000
8759 13896 1 0.16500 119244.000000
8759 14691 1 0.16500 119244.000000
8760 23301 1 0.16500 119244.000000
8760 24525 1 0.16500 119244.000000
8761 15426 1 0.16500 119244.000000
8761 23301 1 0.16500 119244.000000
8762 13897 1 0.16500 119244.000000
8762 15243 1 0.16500 119244.000000
8763 13898 1 0.16500 119244.000000
8763 14798 1 0.16500 119244.000000
8764 13899 1 0.16500 119244.000000
8764 13904 1 0.16500 119244.000000
8765 13899 1 0.16500 119244.000000
8765 14104 1 0.16500 119244.000000
8766 13900 1 0.16500 119244.000000
8766 14303 1 0.16500 119244.000000
8767 13900 1 0.16500 119244.000000
8767 15535 1 0.16500 119244.000000
8768 13901 1 0.16500 119244.000000
8768 14375 1 0.16500 119244.000000
8769 13901 1 0.16500 119244.000000
8769 15457 1 0.16500 119244.000000
8770 13902 1 0.16500 119244.000000
8770 14966 1 0.16500 119244.000000
8771 13902 1 0.16500 119244.000000
8771 15161 1 0.16500 119244.000000
8772 13904 1 0.16500 119244.000000
8772 15936 1 0.16500 119244.000000
8773 13905 1 0.16500 119244.000000
8773 15749 1 0.16500 119244.000000
8774 13905 1 0.16500 119244.000000
8774 14279 1 0.16500 119244.000000
8775 13906 1 0.16500 119244.000000
8775 15071 1 0.16500 119244.000000
8776 13906 1 0.16500 119244.000000
8776 14804 1 0.16500 119244.000000
8777 14118 1 0.16500 119244.000000
8777 23313 1 0.16500 119244.000000
8778 13907 1 0.16500 119244.000000
8778 14931 1 0.16500 119244.000000
8779 13907 1 0.16500 119244.000000
8779 14169 1 0.16500 119244.000000
8780 13908 1 0.16500 119244.000000
8780 15463 1 0.16500 119244.000000
8781 13908 1 0.16500 119244.000000
8781 15210 1 0.16500 119244.000000
8782 13908 1 0.16500 119244.000000
8782 14634 1 0.16500 119244.000000
8783 13909 1 0.16500 119244.000000
8783 16125 1 0.16500 119244.000000
8784 13909 1 0.16500 119244.000000
8784 14305 1 0.16500 119244.000000
8785 13910 1 0.16500 119244.000000
8785 18023 1 0.16500 119244.000000
8786 13911 1 0.16500 119244.000000
8786 14822 1 0.16500 119244.000000
8787 13911 1 0.16500 119244.000000
8787 15316 1 0.16500 119244.000000
8788 13912 1 0.16500 119244.000000
8788 14607 1 0.16500 119244.000000
8789 13912 1 0.16500 119244.000000
8789 15218 1 0.16500 119244.000000
8790 13913 1 0.16500 119244.000000
8790 14501 1 0.16500 119244.000000
8791 13913 1 0.16500 119244.000000
8791 14953 1 0.16500 119244.000000
8792 13913 1 0.16500 119244.000000
8792 14349 1 0.16500 119244.000000
8793 14534 1 0.16500 119244.000000
8793 23325 1 0.16500 119244.000000
8794 23325 1 0.16500 119244.000000
8794 24288 1 0.16500 119244.000000
8795 13914 1 0.16500 119244.000000
8795 14493 1 0.16500 119244.000000
8796 13915 1 0.16500 119244.000000
8796 14153 1 0.16500 119244.000000
8797 13915 1 0.16500 119244.000000
8797 14221 1 0.16500 119244.000000
8798 13916 1 0.16500 119244.000000
8798 14566 1 0.16500 119244.000000
8799 13916 1 0.16500 119244.000000
8799 24387 1 0.16500 119244.000000
8800 13917 1 0.16500 119244.000000
8800 15280 1 0.16500 119244.000000
8801 13430 1 0.16500 119244.000000
8801 13917 1 0.16500 119244.000000
8802 13917 1 0.16500 119244.000000
8802 14630 1 0.16500 119244.000000
8803 13918 1 0.16500 119244.000000
8803 15701 1 0.16500 119244.000000
8804 13918 1 0.16500 119244.000000
8804 13921 1 0.16500 119244.000000
8805 13919 1 0.16500 119244.000000
8805 14465 1 0.16500 119244.000000
8806 13919 1 0.16500 119244.000000
8806 14032 1 0.16500 119244.000000
8807 13919 1 0.16500 119244.000000
8807 15599 1 0.16500 119244.000000
8808 13920 1 0.16500 119244.000000
8808 14908 1 0.16500 119244.000000
8809 13921 1 0.16500 119244.000000
8809 15839 1 0.16500 119244.000000
8810 13921 1 0.16500 119244.000000
8810 14266 1 0.16500 119244.000000
8811 13921 1 0.16500 119244.000000
8811 15271 1 0.16500 119244.000000
8812 13922 1 0.16500 119244.000000
8812 15830 1 0.16500 119244.000000
8813 14641 1 0.16500 119244.000000
8813 23337 1 0.16500 119244.000000
8814 13923 1 0.16500 119244.000000
8814 14649 1 0.16500 119244.000000
8815 21021 1 0.16500 119244.000000
8815 24411 1 0.16500 119244.000000
8816 13924 1 0.16500 119244.000000
8816 14509 1 0.16500 119244.000000
8817 13925 1 0.16500 119244.000000
8817 15843 1 0.16500 119244.000000
8818 13926 1 0.16500 119244.000000
8818 15589 1 0.16500 119244.000000
8819 13926 1 0.16500 119244.000000
8819 15995 1 0.16500 119244.000000
8820 13927 1 0.16500 119244.000000
8820 15873 1 0.16500 119244.000000
8821 15576 1 0.16500 119244.000000
8821 17183 1 0.16500 119244.000000
8822 17197 1 0.16500 119244.000000
8822 24339 1 0.16500 119244.000000
8823 13928 1 0.16500 119244.000000
8823 14319 1 0.16500 119244.000000
8824 13928 1 0.16500 119244.000000
8824 15659 1 0.16500 119244.000000
8825 13929 1 0.16500 119244.000000
8825 14909 1 0.16500 119244.000000
8826 15404 1 0.16500 119244.000000
8826 15945 1 0.16500 119244.000000
8827 13933 1 0.16500 119244.000000
8827 14016 1 0.16500 119244.000000
8828 13933 1 0.16500 119244.000000
8828 14543 1 0.16500 119244.000000
8829 13933 1 0.16500 119244.000000
8829 23157 1 0.16500 119244.000000
8830 13934 1 0.16500 119244.000000
8830 15432 1 0.16500 119244.000000
8831 13935 1 0.16500 119244.000000
8831 15565 1 0.16500 119244.000000
8832 13935 1 0.16500 119244.000000
8832 15292 1 0.16500 119244.000000
8833 13935 1 0.16500 119244.000000
8833 14685 1 0.16500 119244.000000
8834 13935 1 0.16500 119244.000000
8834 14402 1 0.16500 119244.000000
8835 13936 1 0.16500 119244.000000
8835 14159 1 0.16500 119244.000000
8836 13937 1 0.16500 119244.000000
8836 15155 1 0.16500 119244.000000
8837 13938 1 0.16500 119244.000000
8837 14590 1 0.16500 119244.000000
8838 13939 1 0.16500 119244.000000
8838 14701 1 0.16500 119244.000000
8839 13939 1 0.16500 119244.000000
8839 15018 1 0.16500 119244.000000
8840 13939 1 0.16500 119244.000000
8840 15537 1 0.16500 119244.000000
8841 13940 1 0.16500 119244.000000
8841 24794 1 0.16500 119244.000000
8842 13940 1 0.16500 119244.000000
8842 14279 1 0.16500 119244.000000
8843 13941 1 0.16500 119244.000000
8843 15725 1 0.16500 119244.000000
8844 13941 1 0.16500 119244.000000
8844 14906 1 0.16500 119244.000000
8845 13942 1 0.16500 119244.000000
8845 15907 1 0.16500 119244.000000
8846 13942 1 0.16500 119244.000000
8846 15889 1 0.16500 119244.000000
8847 13943 1 0.16500 119244.000000
8847 15023 1 0.16500 119244.000000
8848 12865 1 0.16500 119244.000000
8848 14503 1 0.16500 119244.000000
8849 13944 1 0.16500 119244.000000
8849 14989 1 0.16500 119244.000000
8850 13945 1 0.16500 119244.000000
8850 16134 1 0.16500 119244.000000
8851 17225 1 0.16500 119244.000000
8851 24309 1 0.16500 119244.000000
8852 13946 1 0.16500 119244.000000
8852 14599 1 0.16500 119244.000000
8853 13946 1 0.16500 119244.000000
8853 14822 1 0.16500 119244.000000
8854 13946 1 0.16500 119244.000000
8854 15895 1 0.16500 119244.000000
8855 12699 1 0.16500 119244.000000
8855 16097 1 0.16500 119244.000000
8856 13947 1 0.16500 119244.000000
8856 14360 1 0.16500 119244.000000
8857 13947 1 0.16500 119244.000000
8857 14176 1 0.16500 119244.000000
8858 13948 1 0.16500 119244.000000
8858 15468 1 0.16500 119244.000000
8859 13948 1 0.16500 119244.000000
8859 15093 1 0.16500 119244.000000
8860 13948 1 0.16500 119244.000000
8860 15900 1 0.16500 119244.000000
8861 13949 1 0.16500 119244.000000
8861 15796 1 0.16500 119244.000000
8862 13949 1 0.16500 119244.000000
8862 14344 1 0.16500 119244.000000
8863 13949 1 0.16500 119244.000000
8863 14808 1 0.16500 119244.000000
8864 15863 1 0.16500 119244.000000
8864 23385 1 0.16500 119244.000000
8865 23385 1 0.16500 119244.000000
8865 24719 1 0.16500 119244.000000
8866 14572 1 0.16500 119244.000000
8866 17239 1 0.16500 119244.000000
8867 15954 1 0.16500 119244.000000
8867 17239 1 0.16500 119244.000000
8868 13950 1 0.16500 119244.000000
8868 14175 1 0.16500 119244.000000
8869 15470 1 0.16500 119244.000000
8869 18849 1 0.16500 119244.000000
8870 13951 1 0.16500 119244.000000
8870 15853 1 0.16500 119244.000000
8871 13951 1 0.16500 119244.000000
8871 14088 1 0.16500 119244.000000
8872 13953 1 0.16500 119244.000000
8872 14804 1 0.16500 119244.000000
8873 14611 1 0.16500 119244.000000
8873 23397 1 0.16500 119244.000000
8874 23397 1 0.16500 119244.000000
8874 24243 1 0.16500 119244.000000
8875 23397 1 0.16500 119244.000000
8875 23985 1 0.16500 119244.000000
8876 14573 1 0.16500 119244.000000
8876 23409 1 0.16500 119244.000000
8877 14784 1 0.16500 119244.000000
8877 23421 1 0.16500 119244.000000
8878 14326 1 0.16500 119244.000000
8878 23433 1 0.16500 119244.000000
8879 18317 1 0.16500 119244.000000
8879 23433 1 0.16500 119244.000000
8880 13954 1 0.16500 119244.000000
8880 14843 1 0.16500 119244.000000
8881 13955 1 0.16500 119244.000000
8881 14775 1 0.16500 119244.000000
8882 13955 1 0.16500 119244.000000
8882 15803 1 0.16500 119244.000000
8883 13956 1 0.16500 119244.000000
8883 15029 1 0.16500 119244.000000
8884 13957 1 0.16500 119244.000000
8884 15384 1 0.16500 119244.000000
8885 13957 1 0.16500 119244.000000
8885 15256 1 0.16500 119244.000000
8886 13958 1 0.16500 119244.000000
8886 14252 1 0.16500 119244.000000
8887 13958 1 0.16500 119244.000000
8887 15444 1 0.16500 119244.000000
8888 13960 1 0.16500 119244.000000
8888 15671 1 0.16500 119244.000000
8889 13960 1 0.16500 119244.000000
8889 15653 1 0.16500 119244.000000
8890 13960 1 0.16500 119244.000000
8890 14167 1 0.16500 119244.000000
8891 13961 1 0.16500 119244.000000
8891 14180 1 0.16500 119244.000000
8892 13961 1 0.16500 119244.000000
8892 15155 1 0.16500 119244.000000
8893 13139 1 0.16500 119244.000000
8893 13962 1 0.16500 119244.000000
8894 11952 1 0.16500 119244.000000
8894 15633 1 0.16500 119244.000000
8895 13963 1 0.16500 119244.000000
8895 15952 1 0.16500 119244.000000
8896 13964 1 0.16500 119244.000000
8896 14541 1 0.16500 119244.000000
8897 13964 1 0.16500 119244.000000
8897 14552 1 0.16500 119244.000000
8898 13964 1 0.16500 119244.000000
8898 14771 1 0.16500 119244.000000
8899 13965 1 0.16500 119244.000000
8899 14322 1 0.16500 119244.000000
8900 13966 1 0.16500 119244.000000
8900 15951 1 0.16500 119244.000000
8901 13966 1 0.16500 119244.000000
8901 15425 1 0.16500 119244.000000
8902 13967 1 0.16500 119244.000000
8902 15667 1 0.16500 119244.000000
8903 13967 1 0.16500 119244.000000
8903 15769 1 0.16500 119244.000000
8904 13968 1 0.16500 119244.000000
8904 16015 1 0.16500 119244.000000
8905 13968 1 0.16500 119244.000000
8905 16159 1 0.16500 119244.000000
8906 13968 1 0.16500 119244.000000
8906 14779 1 0.16500 119244.000000
8907 13969 1 0.16500 119244.000000
8907 15631 1 0.16500 119244.000000
8908 14704 1 0.16500 119244.000000
8908 23445 1 0.16500 119244.000000
8909 13971 1 0.16500 119244.000000
8909 14617 1 0.16500 119244.000000
8910 13971 1 0.16500 119244.000000
8910 14360 1 0.16500 119244.000000
8911 13972 1 0.16500 119244.000000
8911 15476 1 0.16500 119244.000000
8912 13972 1 0.16500 119244.000000
8912 14456 1 0.16500 119244.000000
8913 14040 1 0.16500 119244.000000
8913 23457 1 0.16500 119244.000000
8914 13973 1 0.16500 119244.000000
8914 14355 1 0.16500 119244.000000
8915 13973 1 0.16500 119244.000000
8915 14397 1 0.16500 119244.000000
8916 12980 1 0.16500 119244.000000
8916 17267 1 0.16500 119244.000000
8917 13974 1 0.16500 119244.000000
8917 15165 1 0.16500 119244.000000
8918 13975 1 0.16500 119244.000000
8918 14600 1 0.16500 119244.000000
8919 13975 1 0.16500 119244.000000
8919 14455 1 0.16500 119244.000000
8920 13975 1 0.16500 119244.000000
8920 14943 1 0.16500 119244.000000
8921 13976 1 0.16500 119244.000000
8921 15733 1 0.16500 119244.000000
8922 13976 1 0.16500 119244.000000
8922 15770 1 0.16500 119244.000000
8923 23469 1 0.16500 119244.000000
8923 24618 1 0.16500 119244.000000
8924 13977 1 0.16500 119244.000000
8924 14854 1 0.16500 119244.000000
8925 13977 1 0.16500 119244.000000
8925 16120 1 0.16500 119244.000000
8926 13977 1 0.16500 119244.000000
8926 14765 1 0.16500 119244.000000
8927 23493 1 0.16500 119244.000000
8927 24582 1 0.16500 119244.000000
8928 17281 1 0.16500 119244.000000
8928 24045 1 0.16500 119244.000000
8929 13978 1 0.16500 119244.000000
8929 15944 1 0.16500 119244.000000
8930 13979 1 0.16500 119244.000000
8930 16140 1 0.16500 119244.000000
8931 13979 1 0.16500 119244.000000
8931 15985 1 0.16500 119244.000000
8932 13979 1 0.16500 119244.000000
8932 15415 1 0.16500 119244.000000
8933 13979 1 0.16500 119244.000000
8933 15662 1 0.16500 119244.000000
8934 13980 1 0.16500 119244.000000
8934 15821 1 0.16500 119244.000000
8935 13980 1 0.16500 119244.000000
8935 15123 1 0.16500 119244.000000
8936 13981 1 0.16500 119244.000000
8936 14667 1 0.16500 119244.000000
8937 13982 1 0.16500 119244.000000
8937 14663 1 0.16500 119244.000000
8938 13982 1 0.16500 119244.000000
8938 18135 1 0.16500 119244.000000
8939 13573 1 0.16500 119244.000000
8939 13983 1 0.16500 119244.000000
8940 13984 1 0.16500 119244.000000
8940 15936 1 0.16500 119244.000000
8941 13985 1 0.16500 119244.000000
8941 14024 1 0.16500 119244.000000
8942 23505 1 0.16500 119244.000000
8942 24090 1 0.16500 119244.000000
8943 13986 1 0.16500 119244.000000
8943 15691 1 0.16500 119244.000000
8944 13986 1 0.16500 119244.000000
8944 14521 1 0.16500 119244.000000
8945 13986 1 0.16500 119244.000000
8945 15892 1 0.16500 119244.000000
8946 13986 1 0.16500 119244.000000
8946 16115 1 0.16500 119244.000000
8947 13987 1 0.16500 119244.000000
8947 15782 1 0.16500 119244.000000
8948 13987 1 0.16500 119244.000000
8948 14203 1 0.16500 119244.000000
8949 13988 1 0.16500 119244.000000
8949 16103 1 0.16500 119244.000000
8950 13988 1 0.16500 119244.000000
8950 14925 1 0.16500 119244.000000
8951 13988 1 0.16500 119244.000000
8951 15097 1 0.16500 119244.000000
8952 13988 1 0.16500 119244.000000
8952 16161 1 0.16500 119244.000000
8953 13989 1 0.16500 119244.000000
8953 15101 1 0.16500 119244.000000
8954 13990 1 0.16500 119244.000000
8954 24528 1 0.16500 119244.000000
8955 13990 1 0.16500 119244.000000
8955 14718 1 0.16500 119244.000000
8956 13990 1 0.16500 119244.000000
8956 23952 1 0.16500 119244.000000
8957 13991 1 0.16500 119244.000000
8957 14277 1 0.16500 119244.000000
8958 13991 1 0.16500 119244.000000
8958 16204 1 0.16500 119244.000000
8959 13991 1 0.16500 119244.000000
8959 15086 1 0.16500 119244.000000
8960 13993 1 0.16500 119244.000000
8960 13996 1 0.16500 119244.000000
8961 23517 1 0.16500 119244.000000
8961 24384 1 0.16500 119244.000000
8962 14968 1 0.16500 119244.000000
8962 17295 1 0.16500 119244.000000
8963 13994 1 0.16500 119244.000000
8963 16195 1 0.16500 119244.000000
8964 13995 1 0.16500 119244.000000
8964 15091 1 0.16500 119244.000000
8965 13995 1 0.16500 119244.000000
8965 16125 1 0.16500 119244.000000
8966 13995 1 0.16500 119244.000000
8966 15920 1 0.16500 119244.000000
8967 13996 1 0.16500 119244.000000
8967 15473 1 0.16500 119244.000000
8968 13997 1 0.16500 119244.000000
8968 15298 1 0.16500 119244.000000
8969 13997 1 0.16500 119244.000000
8969 15262 1 0.16500 119244.000000
8970 11965 1 0.16500 119244.000000
8970 15796 1 0.16500 119244.000000
8971 13999 1 0.16500 119244.000000
8971 16190 1 0.16500 119244.000000
8972 13999 1 0.16500 119244.000000
8972 15035 1 0.16500 119244.000000
8973 13999 1 0.16500 119244.000000
8973 14341 1 0.16500 119244.000000
8974 14424 1 0.16500 119244.000000
8974 17309 1 0.16500 119244.000000
8975 15840 1 0.16500 119244.000000
8975 23529 1 0.16500 119244.000000
8976 11895 1 0.16500 119244.000000
8976 14196 1 0.16500 119244.000000
8977 14000 1 0.16500 119244.000000
8977 15572 1 0.16500 119244.000000
8978 14000 1 0.16500 119244.000000
8978 14650 1 0.16500 119244.000000
8979 14001 1 0.16500 119244.000000
8979 15986 1 0.16500 119244.000000
8980 14001 1 0.16500 119244.000000
8980 14578 1 0.16500 119244.000000
8981 14001 1 0.16500 119244.000000
8981 14972 1 0.16500 119244.000000
8982 14002 1 0.16500 119244.000000
8982 15315 1 0.16500 119244.000000
8983 14002 1 0.16500 119244.000000
8983 14698 1 0.16500 119244.000000
8984 14003 1 0.16500 119244.000000
8984 15947 1 0.16500 119244.000000
8985 14003 1 0.16500 119244.000000
8985 24087 1 0.16500 119244.000000
8986 11532 1 0.16500 119244.000000
8986 14881 1 0.16500 119244.000000
8987 14005 1 0.16500 119244.000000
8987 16193 1 0.16500 119244.000000
8988 14005 1 0.16500 119244.000000
8988 15704 1 0.16500 119244.000000
8989 14005 1 0.16500 119244.000000
8989 14188 1 0.16500 119244.000000
8990 15741 1 0.16500 119244.000000
8990 23541 1 0.16500 119244.000000
8991 14007 1 0.16500 119244.000000
8991 15224 1 0.16500 119244.000000
8992 14007 1 0.16500 119244.000000
8992 15746 1 0.16500 119244.000000
8993 14008 1 0.16500 119244.000000
8993 15583 1 0.16500 119244.000000
8994 14008 1 0.16500 119244.000000
8994 16040 1 0.16500 119244.000000
8995 14009 1 0.16500 119244.000000
8995 14870 1 0.16500 119244.000000
8996 14011 1 0.16500 119244.000000
8996 16078 1 0.16500 119244.000000
8997 14011 1 0.16500 119244.000000
8997 14366 1 0.16500 119244.000000
8998 13680 1 0.16500 119244.000000
8998 15378 1 0.16500 119244.000000
8999 14013 1 0.16500 119244.000000
8999 14748 1 0.16500 119244.000000
9000 14013 1 0.16500 119244.000000
9000 14338 1 0.16500 119244.000000
9001 16098 1 0.16500 119244.000000
9001 19533 1 0.16500 119244.000000
9002 14014 1 0.16500 119244.000000
9002 15904 1 0.16500 119244.000000
9003 14014 1 0.16500 119244.000000
9003 15267 1 0.16500 119244.000000
9004 14014 1 0.16500 119244.000000
9004 15406 1 0.16500 119244.000000
9005 15197 1 0.16500 119244.000000
9005 23553 1 0.16500 119244.000000
9006 14015 1 0.16500 119244.000000
9006 14339 1 0.16500 119244.000000
9007 14015 1 0.16500 119244.000000
9007 16160 1 0.16500 119244.000000
9008 14015 1 0.16500 119244.000000
9008 15984 1 0.16500 119244.000000
9009 14016 1 0.16500 119244.000000
9009 15877 1 0.16500 119244.000000
9010 11676 1 0.16500 119244.000000
9010 23565 1 0.16500 119244.000000
9011 23577 1 0.16500 119244.000000
9011 24114 1 0.16500 119244.000000
9012 14147 1 0.16500 119244.000000
9012 23577 1 0.16500 119244.000000
9013 14017 1 0.16500 119244.000000
9013 15543 1 0.16500 119244.000000
9014 14017 1 0.16500 119244.000000
9014 15076 1 0.16500 119244.000000
9015 14018 1 0.16500 119244.000000
9015 14315 1 0.16500 119244.000000
9016 14315 1 0.16500 119244.000000
9016 14879 1 0.16500 119244.000000
9017 14018 1 0.16500 119244.000000
9017 16005 1 0.16500 119244.000000
9018 14019 1 0.16500 119244.000000
9018 15368 1 0.16500 119244.000000
9019 14020 1 0.16500 119244.000000
9019 14077 1 0.16500 119244.000000
9020 11844 1 0.16500 119244.000000
9020 14021 1 0.16500 119244.000000
9021 14021 1 0.16500 119244.000000
9021 24468 1 0.16500 119244.000000
9022 14022 1 0.16500 119244.000000
9022 14927 1 0.16500 119244.000000
9023 14022 1 0.16500 119244.000000
9023 15592 1 0.16500 119244.000000
9024 14776 1 0.16500 119244.000000
9024 23589 1 0.16500 119244.000000
9025 23589 1 0.16500 119244.000000
9025 24453 1 0.16500 119244.000000
9026 14023 1 0.16500 119244.000000
9026 15588 1 0.16500 119244.000000
9027 14023 1 0.16500 119244.000000
9027 15300 1 0.16500 119244.000000
9028 14023 1 0.16500 119244.000000
9028 15140 1 0.16500 119244.000000
9029 14024 1 0.16500 119244.000000
9029 14625 1 0.16500 119244.000000
9030 14024 1 0.16500 119244.000000
9030 14397 1 0.16500 119244.000000
9031 14025 1 0.16500 119244.000000
9031 15055 1 0.16500 119244.000000
9032 14025 1 0.16500 119244.000000
9032 17659 1 0.16500 119244.000000
9033 13254 1 0.16500 119244.000000
9033 14025 1 0.16500 119244.000000
9034 14026 1 0.16500 119244.000000
9034 14345 1 0.16500 119244.000000
9035 14802 1 0.16500 119244.000000
9035 17323 1 0.16500 119244.000000
9036 14028 1 0.16500 119244.000000
9036 15723 1 0.16500 119244.000000
9037 14028 1 0.16500 119244.000000
9037 14412 1 0.16500 119244.000000
9038 14029 1 0.16500 119244.000000
9038 15245 1 0.16500 119244.000000
9039 14029 1 0.16500 119244.000000
9039 14709 1 0.16500 119244.000000
9040 14030 1 0.16500 119244.000000
9040 15020 1 0.16500 119244.000000
9041 14858 1 0.16500 119244.000000
9041 15487 1 0.16500 119244.000000
9042 14030 1 0.16500 119244.000000
9042 15487 1 0.16500 119244.000000
9043 14030 1 0.16500 119244.000000
9043 15155 1 0.16500 119244.000000
9044 14031 1 0.16500 119244.000000
9044 14451 1 0.16500 119244.000000
9045 14032 1 0.16500 119244.000000
9045 15352 1 0.16500 119244.000000
9046 14033 1 0.16500 119244.000000
9046 14736 1 0.16500 119244.000000
9047 14033 1 0.16500 119244.000000
9047 15482 1 0.16500 119244.000000
9048 18261 1 0.16500 119244.000000
9048 23601 1 0.16500 119244.000000
9049 14034 1 0.16500 119244.000000
9049 14902 1 0.16500 119244.000000
9050 14034 1 0.16500 119244.000000
9050 15797 1 0.16500 119244.000000
9051 14035 1 0.16500 119244.000000
9051 14560 1 0.16500 119244.000000
9052 14035 1 0.16500 119244.000000
9052 16128 1 0.16500 119244.000000
9053 14036 1 0.16500 119244.000000
9053 14923 1 0.16500 119244.000000
9054 23613 1 0.16500 119244.000000
9054 23805 1 0.16500 119244.000000
9055 15730 1 0.16500 119244.000000
9055 23613 1 0.16500 119244.000000
9056 12383 1 0.16500 119244.000000
9056 14038 1 0.16500 119244.000000
9057 14039 1 0.16500 119244.000000
9057 14280 1 0.16500 119244.000000
9058 14039 1 0.16500 119244.000000
9058 15909 1 0.16500 119244.000000
9059 14039 1 0.16500 119244.000000
9059 14414 1 0.16500 119244.000000
9060 14040 1 0.16500 119244.000000
9060 14061 1 0.16500 119244.000000
9061 13176 1 0.16500 119244.000000
9061 14707 1 0.16500 119244.000000
9062 12236 1 0.16500 119244.000000
9062 14041 1 0.16500 119244.000000
9063 14041 1 0.16500 119244.000000
9063 14145 1 0.16500 119244.000000
9064 14041 1 0.16500 119244.000000
9064 15826 1 0.16500 119244.000000
9065 14042 1 0.16500 119244.000000
9065 14473 1 0.16500 119244.000000
9066 14043 1 0.16500 119244.000000
9066 15555 1 0.16500 119244.000000
9067 14675 1 0.16500 119244.000000
9067 23625 1 0.16500 119244.000000
9068 14044 1 0.16500 119244.000000
9068 14952 1 0.16500 119244.000000
9069 14518 1 0.16500 119244.000000
9069 14952 1 0.16500 119244.000000
9070 14045 1 0.16500 119244.000000
9070 16114 1 0.16500 119244.000000
9071 14045 1 0.16500 119244.000000
9071 14671 1 0.16500 119244.000000
9072 14046 1 0.16500 119244.000000
9072 15067 1 0.16500 119244.000000
9073 12444 1 0.16500 119244.000000
9073 14888 1 0.16500 119244.000000
9074 14047 1 0.16500 119244.000000
9074 15506 1 0.16500 119244.000000
9075 14047 1 0.16500 119244.000000
9075 14579 1 0.16500 119244.000000
9076 14048 1 0.16500 119244.000000
9076 15022 1 0.16500 119244.000000
9077 14048 1 0.16500 119244.000000
9077 15127 1 0.16500 119244.000000
9078 14048 1 0.16500 119244.000000
9078 16167 1 0.16500 119244.000000
9079 14048 1 0.16500 119244.000000
9079 15784 1 0.16500 119244.000000
9080 14049 1 0.16500 119244.000000
9080 16211 1 0.16500 119244.000000
9081 14049 1 0.16500 119244.000000
9081 14056 1 0.16500 119244.000000
9082 14549 1 0.16500 119244.000000
9082 15449 1 0.16500 119244.000000
9083 14049 1 0.16500 119244.000000
9083 15449 1 0.16500 119244.000000
9084 14050 1 0.16500 119244.000000
9084 14091 1 0.16500 119244.000000
9085 12919 1 0.16500 119244.000000
9085 14175 1 0.16500 119244.000000
9086 14052 1 0.16500 119244.000000
9086 14819 1 0.16500 119244.000000
9087 14053 1 0.16500 119244.000000
9087 15279 1 0.16500 119244.000000
9088 16066 1 0.16500 119244.000000
9088 23637 1 0.16500 119244.000000
9089 14967 1 0.16500 119244.000000
9089 23637 1 0.16500 119244.000000
9090 17449 1 0.16500 119244.000000
9090 23637 1 0.16500 119244.000000
9091 14054 1 0.16500 119244.000000
9091 23985 1 0.16500 119244.000000
9092 14054 1 0.16500 119244.000000
9092 24057 1 0.16500 119244.000000
9093 14054 1 0.16500 119244.000000
9093 14055 1 0.16500 119244.000000
9094 14055 1 0.16500 119244.000000
9094 14251 1 0.16500 119244.000000
9095 14055 1 0.16500 119244.000000
9095 16212 1 0.16500 119244.000000
9096 14056 1 0.16500 119244.000000
9096 15895 1 0.16500 119244.000000
9097 14056 1 0.16500 119244.000000
9097 14673 1 0.16500 119244.000000
9098 11783 1 0.16500 119244.000000
9098 17337 1 0.16500 119244.000000
9099 14057 1 0.16500 119244.000000
9099 15798 1 0.16500 119244.000000
9100 14057 1 0.16500 119244.000000
9100 15964 1 0.16500 119244.000000
9101 14058 1 0.16500 119244.000000
9101 15718 1 0.16500 119244.000000
9102 14058 1 0.16500 119244.000000
9102 14259 1 0.16500 119244.000000
9103 15490 1 0.16500 119244.000000
9103 23649 1 0.16500 119244.000000
9104 23649 1 0.16500 119244.000000
9104 24378 1 0.16500 119244.000000
9105 14059 1 0.16500 119244.000000
9105 14840 1 0.16500 119244.000000
9106 14059 1 0.16500 119244.000000
9106 15832 1 0.16500 119244.000000
9107 14059 1 0.16500 119244.000000
9107 14068 1 0.16500 119244.000000
9108 14060 1 0.16500 119244.000000
9108 15708 1 0.16500 119244.000000
9109 14061 1 0.16500 119244.000000
9109 15577 1 0.16500 119244.000000
9110 14062 1 0.16500 119244.000000
9110 14089 1 0.16500 119244.000000
9111 15703 1 0.16500 119244.000000
9111 22785 1 0.16500 119244.000000
9112 14062 1 0.16500 119244.000000
9112 15284 1 0.16500 119244.000000
9113 14063 1 0.16500 119244.000000
9113 15549 1 0.16500 119244.000000
9114 14064 1 0.16500 119244.000000
9114 14748 1 0.16500 119244.000000
9115 14064 1 0.16500 119244.000000
9115 14621 1 0.16500 119244.000000
9116 14064 1 0.16500 119244.000000
9116 15048 1 0.16500 119244.000000
9117 14065 1 0.16500 119244.000000
9117 15831 1 0.16500 119244.000000
9118 14065 1 0.16500 119244.000000
9118 14988 1 0.16500 119244.000000
9119 14532 1 0.16500 119244.000000
9119 14988 1 0.16500 119244.000000
9120 14065 1 0.16500 119244.000000
9120 15679 1 0.16500 119244.000000
9121 14066 1 0.16500 119244.000000
9121 15565 1 0.16500 119244.000000
9122 14066 1 0.16500 119244.000000
9122 15500 1 0.16500 119244.000000
9123 14067 1 0.16500 119244.000000
9123 16047 1 0.16500 119244.000000
9124 14067 1 0.16500 119244.000000
9124 15039 1 0.16500 119244.000000
9125 14067 1 0.16500 119244.000000
9125 15823 1 0.16500 119244.000000
9126 15461 1 0.16500 119244.000000
9126 15823 1 0.16500 119244.000000
9127 14068 1 0.16500 119244.000000
9127 16114 1 0.16500 119244.000000
9128 12579 1 0.16500 119244.000000
9128 14068 1 0.16500 119244.000000
9129 14070 1 0.16500 119244.000000
9129 14479 1 0.16500 119244.000000
9130 13185 1 0.16500 119244.000000
9130 14071 1 0.16500 119244.000000
9131 14071 1 0.16500 119244.000000
9131 14389 1 0.16500 119244.000000
9132 14071 1 0.16500 119244.000000
9132 14916 1 0.16500 119244.000000
9133 14071 1 0.16500 119244.000000
9133 16162 1 0.16500 119244.000000
9134 12039 1 0.16500 119244.000000
9134 15705 1 0.16500 119244.000000
9135 14074 1 0.16500 119244.000000
9135 15917 1 0.16500 119244.000000
9136 14074 1 0.16500 119244.000000
9136 15044 1 0.16500 119244.000000
9137 14075 1 0.16500 119244.000000
9137 14360 1 0.16500 119244.000000
9138 14075 1 0.16500 119244.000000
9138 14181 1 0.16500 119244.000000
9139 15828 1 0.16500 119244.000000
9139 23661 1 0.16500 119244.000000
9140 14369 1 0.16500 119244.000000
9140 23661 1 0.16500 119244.000000
9141 14076 1 0.16500 119244.000000
9141 15809 1 0.16500 119244.000000
9142 14077 1 0.16500 119244.000000
9142 14546 1 0.16500 119244.000000
9143 23673 1 0.16500 119244.000000
9143 24072 1 0.16500 119244.000000
9144 14320 1 0.16500 119244.000000
9144 23673 1 0.16500 119244.000000
9145 14078 1 0.16500 119244.000000
9145 14847 1 0.16500 119244.000000
9146 15312 1 0.16500 119244.000000
9146 15964 1 0.16500 119244.000000
9147 14563 1 0.16500 119244.000000
9147 15312 1 0.16500 119244.000000
9148 14080 1 0.16500 119244.000000
9148 15312 1 0.16500 119244.000000
9149 14081 1 0.16500 119244.000000
9149 16063 1 0.16500 119244.000000
9150 14081 1 0.16500 119244.000000
9150 15380 1 0.16500 119244.000000
9151 14081 1 0.16500 119244.000000
9151 14195 1 0.16500 119244.000000
9152 14082 1 0.16500 119244.000000
9152 14637 1 0.16500 119244.000000
9153 14082 1 0.16500 119244.000000
9153 15299 1 0.16500 119244.000000
9154 14082 1 0.16500 119244.000000
9154 15343 1 0.16500 119244.000000
9155 14083 1 0.16500 119244.000000
9155 15717 1 0.16500 119244.000000
9156 14084 1 0.16500 119244.000000
9156 15321 1 0.16500 119244.000000
9157 14084 1 0.16500 119244.000000
9157 15601 1 0.16500 119244.000000
9158 14085 1 0.16500 119244.000000
9158 15364 1 0.16500 119244.000000
9159 12639 1 0.16500 119244.000000
9159 14425 1 0.16500 119244.000000
9160 14086 1 0.16500 119244.000000
9160 15613 1 0.16500 119244.000000
9161 14086 1 0.16500 119244.000000
9161 15439 1 0.16500 119244.000000
9162 14086 1 0.16500 119244.000000
9162 15151 1 0.16500 119244.000000
9163 14087 1 0.16500 119244.000000
9163 14405 1 0.16500 119244.000000
9164 14087 1 0.16500 119244.000000
9164 24719 1 0.16500 119244.000000
9165 14087 1 0.16500 119244.000000
9165 16208 1 0.16500 119244.000000
9166 14088 1 0.16500 119244.000000
9166 16107 1 0.16500 119244.000000
9167 14088 1 0.16500 119244.000000
9167 14949 1 0.16500 119244.000000
9168 15377 1 0.16500 119244.000000
9168 23697 1 0.16500 119244.000000
9169 14090 1 0.16500 119244.000000
9169 15032 1 0.16500 119244.000000
9170 14092 1 0.16500 119244.000000
9170 14897 1 0.16500 119244.000000
9171 14092 1 0.16500 119244.000000
9171 16000 1 0.16500 119244.000000
9172 12339 1 0.16500 119244.000000
9172 24639 1 0.16500 119244.000000
9173 14093 1 0.16500 119244.000000
9173 15244 1 0.16500 119244.000000
9174 11741 1 0.16500 119244.000000
9174 16094 1 0.16500 119244.000000
9175 14887 1 0.16500 119244.000000
9175 15244 1 0.16500 119244.000000
9176 14094 1 0.16500 119244.000000
9176 14734 1 0.16500 119244.000000
9177 14094 1 0.16500 119244.000000
9177 15706 1 0.16500 119244.000000
9178 14095 1 0.16500 119244.000000
9178 14508 1 0.16500 119244.000000
9179 14096 1 0.16500 119244.000000
9179 15013 1 0.16500 119244.000000
9180 14926 1 0.16500 119244.000000
9180 22965 1 0.16500 119244.000000
9181 14096 1 0.16500 119244.000000
9181 15904 1 0.16500 119244.000000
9182 14097 1 0.16500 119244.000000
9182 15640 1 0.16500 119244.000000
9183 14099 1 0.16500 119244.000000
9183 24231 1 0.16500 119244.000000
9184 14099 1 0.16500 119244.000000
9184 14322 1 0.16500 119244.000000
9185 14100 1 0.16500 119244.000000
9185 15673 1 0.16500 119244.000000
9186 14102 1 0.16500 119244.000000
9186 16027 1 0.16500 119244.000000
9187 14103 1 0.16500 119244.000000
9187 14266 1 0.16500 119244.000000
9188 14104 1 0.16500 119244.000000
9188 14898 1 0.16500 119244.000000
9189 18205 1 0.16500 119244.000000
9189 23721 1 0.16500 119244.000000
9190 14788 1 0.16500 119244.000000
9190 23721 1 0.16500 119244.000000
9191 23721 1 0.16500 119244.000000
9191 24438 1 0.16500 119244.000000
9192 14105 1 0.16500 119244.000000
9192 14534 1 0.16500 119244.000000
9193 17351 1 0.16500 119244.000000
9193 24180 1 0.16500 119244.000000
9194 17365 1 0.16500 119244.000000
9194 20697 1 0.16500 119244.000000
9195 14106 1 0.16500 119244.000000
9195 16132 1 0.16500 119244.000000
9196 14107 1 0.16500 119244.000000
9196 15633 1 0.16500 119244.000000
9197 14107 1 0.16500 119244.000000
9197 15256 1 0.16500 119244.000000
9198 14108 1 0.16500 119244.000000
9198 15110 1 0.16500 119244.000000
9199 14108 1 0.16500 119244.000000
9199 15620 1 0.16500 119244.000000
9200 14108 1 0.16500 119244.000000
9200 15621 1 0.16500 119244.000000
9201 14109 1 0.16500 119244.000000
9201 14825 1 0.16500 119244.000000
9202 14109 1 0.16500 119244.000000
9202 24501 1 0.16500 119244.000000
9203 14110 1 0.16500 119244.000000
9203 15603 1 0.16500 119244.000000
9204 14110 1 0.16500 119244.000000
9204 14948 1 0.16500 119244.000000
9205 14111 1 0.16500 119244.000000
9205 16039 1 0.16500 119244.000000
9206 14111 1 0.16500 119244.000000
9206 14389 1 0.16500 119244.000000
9207 14113 1 0.16500 119244.000000
9207 16043 1 0.16500 119244.000000
9208 14113 1 0.16500 119244.000000
9208 15721 1 0.16500 119244.000000
9209 14113 1 0.16500 119244.000000
9209 14937 1 0.16500 119244.000000
9210 14114 1 0.16500 119244.000000
9210 24261 1 0.16500 119244.000000
9211 14114 1 0.16500 119244.000000
9211 16141 1 0.16500 119244.000000
9212 14114 1 0.16500 119244.000000
9212 15150 1 0.16500 119244.000000
9213 14115 1 0.16500 119244.000000
9213 14158 1 0.16500 119244.000000
9214 14116 1 0.16500 119244.000000
9214 14760 1 0.16500 119244.000000
9215 14117 1 0.16500 119244.000000
9215 15319 1 0.16500 119244.000000
9216 14203 1 0.16500 119244.000000
9216 15488 1 0.16500 119244.000000
9217 14514 1 0.16500 119244.000000
9217 15846 1 0.16500 119244.000000
9218 14118 1 0.16500 119244.000000
9218 14514 1 0.16500 119244.000000
9219 14119 1 0.16500 119244.000000
9219 14130 1 0.16500 119244.000000
9220 14120 1 0.16500 119244.000000
9220 14803 1 0.16500 119244.000000
9221 14120 1 0.16500 119244.000000
9221 15653 1 0.16500 119244.000000
9222 14121 1 0.16500 119244.000000
9222 14940 1 0.16500 119244.000000
9223 14122 1 0.16500 119244.000000
9223 14385 1 0.16500 119244.000000
9224 14122 1 0.16500 119244.000000
9224 14468 1 0.16500 119244.000000
9225 14123 1 0.16500 119244.000000
9225 14898 1 0.16500 119244.000000
9226 14124 1 0.16500 119244.000000
9226 15034 1 0.16500 119244.000000
9227 14124 1 0.16500 119244.000000
9227 14254 1 0.16500 119244.000000
9228 12170 1 0.16500 119244.000000
9228 14125 1 0.16500 119244.000000
9229 14126 1 0.16500 119244.000000
9229 14662 1 0.16500 119244.000000
9230 14126 1 0.16500 119244.000000
9230 23865 1 0.16500 119244.000000
9231 14126 1 0.16500 119244.000000
9231 15919 1 0.16500 119244.000000
9232 14129 1 0.16500 119244.000000
9232 15445 1 0.16500 119244.000000
9233 14129 1 0.16500 119244.000000
9233 15444 1 0.16500 119244.000000
9234 14131 1 0.16500 119244.000000
9234 15083 1 0.16500 119244.000000
9235 14131 1 0.16500 119244.000000
9235 14366 1 0.16500 119244.000000
9236 14132 1 0.16500 119244.000000
9236 15454 1 0.16500 119244.000000
9237 14132 1 0.16500 119244.000000
9237 14455 1 0.16500 119244.000000
9238 14133 1 0.16500 119244.000000
9238 15941 1 0.16500 119244.000000
9239 14133 1 0.16500 119244.000000
9239 14548 1 0.16500 119244.000000
9240 14134 1 0.16500 119244.000000
9240 14872 1 0.16500 119244.000000
9241 14134 1 0.16500 119244.000000
9241 14439 1 0.16500 119244.000000
9242 14134 1 0.16500 119244.000000
9242 15769 1 0.16500 119244.000000
9243 14135 1 0.16500 119244.000000
9243 15979 1 0.16500 119244.000000
9244 14135 1 0.16500 119244.000000
9244 14185 1 0.16500 119244.000000
9245 14136 1 0.16500 119244.000000
9245 15206 1 0.16500 119244.000000
9246 14136 1 0.16500 119244.000000
9246 14430 1 0.16500 119244.000000
9247 14136 1 0.16500 119244.000000
9247 24420 1 0.16500 119244.000000
9248 14137 1 0.16500 119244.000000
9248 15330 1 0.16500 119244.000000
9249 14137 1 0.16500 119244.000000
9249 14144 1 0.16500 119244.000000
9250 14137 1 0.16500 119244.000000
9250 14251 1 0.16500 119244.000000
9251 14138 1 0.16500 119244.000000
9251 14432 1 0.16500 119244.000000
9252 14138 1 0.16500 119244.000000
9252 15170 1 0.16500 119244.000000
9253 14139 1 0.16500 119244.000000
9253 16173 1 0.16500 119244.000000
9254 15886 1 0.16500 119244.000000
9254 23745 1 0.16500 119244.000000
9255 14140 1 0.16500 119244.000000
9255 14654 1 0.16500 119244.000000
9256 14140 1 0.16500 119244.000000
9256 14285 1 0.16500 119244.000000
9257 14141 1 0.16500 119244.000000
9257 15656 1 0.16500 119244.000000
9258 14141 1 0.16500 119244.000000
9258 15365 1 0.16500 119244.000000
9259 14142 1 0.16500 119244.000000
9259 15493 1 0.16500 119244.000000
9260 14142 1 0.16500 119244.000000
9260 14416 1 0.16500 119244.000000
9261 14143 1 0.16500 119244.000000
9261 14480 1 0.16500 119244.000000
9262 14143 1 0.16500 119244.000000
9262 14846 1 0.16500 119244.000000
9263 15566 1 0.16500 119244.000000
9263 17407 1 0.16500 119244.000000
9264 14650 1 0.16500 119244.000000
9264 17407 1 0.16500 119244.000000
9265 14144 1 0.16500 119244.000000
9265 15542 1 0.16500 119244.000000
9266 14146 1 0.16500 119244.000000
9266 15379 1 0.16500 119244.000000
9267 14146 1 0.16500 119244.000000
9267 14680 1 0.16500 119244.000000
9268 14146 1 0.16500 119244.000000
9268 15874 1 0.16500 119244.000000
9269 23757 1 0.16500 119244.000000
9269 24075 1 0.16500 119244.000000
9270 14147 1 0.16500 119244.000000
9270 23910 1 0.16500 119244.000000
9271 14730 1 0.16500 119244.000000
9271 23910 1 0.16500 119244.000000
9272 14148 1 0.16500 119244.000000
9272 15374 1 0.16500 119244.000000
9273 14148 1 0.16500 119244.000000
9273 14670 1 0.16500 119244.000000
9274 14148 1 0.16500 119244.000000
9274 16043 1 0.16500 119244.000000
9275 14149 1 0.16500 119244.000000
9275 15146 1 0.16500 119244.000000
9276 23769 1 0.16500 119244.000000
9276 24354 1 0.16500 119244.000000
9277 14150 1 0.16500 119244.000000
9277 15366 1 0.16500 119244.000000
9278 14151 1 0.16500 119244.000000
9278 16180 1 0.16500 119244.000000
9279 14152 1 0.16500 119244.000000
9279 15662 1 0.16500 119244.000000
9280 14152 1 0.16500 119244.000000
9280 14165 1 0.16500 119244.000000
9281 14152 1 0.16500 119244.000000
9281 16140 1 0.16500 119244.000000
9282 14153 1 0.16500 119244.000000
9282 14259 1 0.16500 119244.000000
9283 11979 1 0.16500 119244.000000
9283 15360 1 0.16500 119244.000000
9284 23781 1 0.16500 119244.000000
9284 24036 1 0.16500 119244.000000
9285 14155 1 0.16500 119244.000000
9285 15831 1 0.16500 119244.000000
9286 15458 1 0.16500 119244.000000
9286 23793 1 0.16500 119244.000000
9287 14156 1 0.16500 119244.000000
9287 14793 1 0.16500 119244.000000
9288 14156 1 0.16500 119244.000000
9288 14369 1 0.16500 119244.000000
9289 14157 1 0.16500 119244.000000
9289 14797 1 0.16500 119244.000000
9290 14157 1 0.16500 119244.000000
9290 15338 1 0.16500 119244.000000
9291 14157 1 0.16500 119244.000000
9291 15883 1 0.16500 119244.000000
9292 14158 1 0.16500 119244.000000
9292 14890 1 0.16500 119244.000000
9293 14158 1 0.16500 119244.000000
9293 16138 1 0.16500 119244.000000
9294 14160 1 0.16500 119244.000000
9294 15660 1 0.16500 119244.000000
9295 14161 1 0.16500 119244.000000
9295 15770 1 0.16500 119244.000000
9296 14161 1 0.16500 119244.000000
9296 15461 1 0.16500 119244.000000
9297 14162 1 0.16500 119244.000000
9297 16104 1 0.16500 119244.000000
9298 14162 1 0.16500 119244.000000
9298 14409 1 0.16500 119244.000000
9299 14162 1 0.16500 119244.000000
9299 14394 1 0.16500 119244.000000
9300 14163 1 0.16500 119244.000000
9300 15504 1 0.16500 119244.000000
9301 14163 1 0.16500 119244.000000
9301 15239 1 0.16500 119244.000000
9302 14164 1 0.16500 119244.000000
9302 15560 1 0.16500 119244.000000
9303 14164 1 0.16500 119244.000000
9303 15059 1 0.16500 119244.000000
9304 12087 1 0.16500 119244.000000
9304 14165 1 0.16500 119244.000000
9305 14166 1 0.16500 119244.000000
9305 15136 1 0.16500 119244.000000
9306 14166 1 0.16500 119244.000000
9306 15348 1 0.16500 119244.000000
9307 14166 1 0.16500 119244.000000
9307 14532 1 0.16500 119244.000000
9308 14167 1 0.16500 119244.000000
9308 15064 1 0.16500 119244.000000
9309 14169 1 0.16500 119244.000000
9309 15973 1 0.16500 119244.000000
9310 14170 1 0.16500 119244.000000
9310 14431 1 0.16500 119244.000000
9311 14170 1 0.16500 119244.000000
9311 15245 1 0.16500 119244.000000
9312 14171 1 0.16500 119244.000000
9312 15015 1 0.16500 119244.000000
9313 14171 1 0.16500 119244.000000
9313 15896 1 0.16500 119244.000000
9314 14171 1 0.16500 119244.000000
9314 14669 1 0.16500 119244.000000
9315 14173 1 0.16500 119244.000000
9315 15213 1 0.16500 119244.000000
9316 14173 1 0.16500 119244.000000
9316 14884 1 0.16500 119244.000000
9317 14174 1 0.16500 119244.000000
9317 15844 1 0.16500 119244.000000
9318 14177 1 0.16500 119244.000000
9318 14334 1 0.16500 119244.000000
9319 14177 1 0.16500 119244.000000
9319 16110 1 0.16500 119244.000000
9320 14177 1 0.16500 119244.000000
9320 14564 1 0.16500 119244.000000
9321 14178 1 0.16500 119244.000000
9321 14574 1 0.16500 119244.000000
9322 14178 1 0.16500 119244.000000
9322 16143 1 0.16500 119244.000000
9323 14179 1 0.16500 119244.000000
9323 15242 1 0.16500 119244.000000
9324 14180 1 0.16500 119244.000000
9324 15228 1 0.16500 119244.000000
9325 14180 1 0.16500 119244.000000
9325 15020 1 0.16500 119244.000000
9326 14182 1 0.16500 119244.000000
9326 15321 1 0.16500 119244.000000
9327 14182 1 0.16500 119244.000000
9327 15364 1 0.16500 119244.000000
9328 14183 1 0.16500 119244.000000
9328 15297 1 0.16500 119244.000000
9329 11843 1 0.16500 119244.000000
9329 12586 1 0.16500 119244.000000
9330 14184 1 0.16500 119244.000000
9330 15024 1 0.16500 119244.000000
9331 14185 1 0.16500 119244.000000
9331 14691 1 0.16500 119244.000000
9332 14185 1 0.16500 119244.000000
9332 15825 1 0.16500 119244.000000
9333 14185 1 0.16500 119244.000000
9333 15534 1 0.16500 119244.000000
9334 14186 1 0.16500 119244.000000
9334 15061 1 0.16500 119244.000000
9335 13181 1 0.16500 119244.000000
9335 14186 1 0.16500 119244.000000
9336 14187 1 0.16500 119244.000000
9336 14814 1 0.16500 119244.000000
9337 14188 1 0.16500 119244.000000
9337 15378 1 0.16500 119244.000000
9338 14188 1 0.16500 119244.000000
9338 14856 1 0.16500 119244.000000
9339 14189 1 0.16500 119244.000000
9339 16064 1 0.16500 119244.000000
9340 14190 1 0.16500 119244.000000
9340 15231 1 0.16500 119244.000000
9341 14190 1 0.16500 119244.000000
9341 15550 1 0.16500 119244.000000
9342 14191 1 0.16500 119244.000000
9342 15864 1 0.16500 119244.000000
9343 14191 1 0.16500 119244.000000
9343 14682 1 0.16500 119244.000000
9344 14192 1 0.16500 119244.000000
9344 24306 1 0.16500 119244.000000
9345 14192 1 0.16500 119244.000000
9345 15636 1 0.16500 119244.000000
9346 14193 1 0.16500 119244.000000
9346 14960 1 0.16500 119244.000000
9347 14194 1 0.16500 119244.000000
9347 14689 1 0.16500 119244.000000
9348 18289 1 0.16500 119244.000000
9348 23805 1 0.16500 119244.000000
9349 14195 1 0.16500 119244.000000
9349 15504 1 0.16500 119244.000000
9350 14196 1 0.16500 119244.000000
9350 14502 1 0.16500 119244.000000
9351 14197 1 0.16500 119244.000000
9351 14419 1 0.16500 119244.000000
9352 12277 1 0.16500 119244.000000
9352 14197 1 0.16500 119244.000000
9353 15791 1 0.16500 119244.000000
9353 23817 1 0.16500 119244.000000
9354 14198 1 0.16500 119244.000000
9354 15958 1 0.16500 119244.000000
9355 14199 1 0.16500 119244.000000
9355 14659 1 0.16500 119244.000000
9356 14199 1 0.16500 119244.000000
9356 15356 1 0.16500 119244.000000
9357 14200 1 0.16500 119244.000000
9357 14586 1 0.16500 119244.000000
9358 14201 1 0.16500 119244.000000
9358 15521 1 0.16500 119244.000000
9359 14542 1 0.16500 119244.000000
9359 15508 1 0.16500 119244.000000
9360 14201 1 0.16500 119244.000000
9360 14542 1 0.16500 119244.000000
9361 14202 1 0.16500 119244.000000
9361 15345 1 0.16500 119244.000000
9362 14117 1 0.16500 119244.000000
9362 15488 1 0.16500 119244.000000
9363 14204 1 0.16500 119244.000000
9363 15610 1 0.16500 119244.000000
9364 14204 1 0.16500 119244.000000
9364 14268 1 0.16500 119244.000000
9365 14205 1 0.16500 119244.000000
9365 15389 1 0.16500 119244.000000
9366 14205 1 0.16500 119244.000000
9366 14749 1 0.16500 119244.000000
9367 14205 1 0.16500 119244.000000
9367 15724 1 0.16500 119244.000000
9368 14206 1 0.16500 119244.000000
9368 16025 1 0.16500 119244.000000
9369 14206 1 0.16500 119244.000000
9369 15543 1 0.16500 119244.000000
9370 14207 1 0.16500 119244.000000
9370 14460 1 0.16500 119244.000000
9371 14208 1 0.16500 119244.000000
9371 14645 1 0.16500 119244.000000
9372 14208 1 0.16500 119244.000000
9372 15654 1 0.16500 119244.000000
9373 14209 1 0.16500 119244.000000
9373 15737 1 0.16500 119244.000000
9374 14210 1 0.16500 119244.000000
9374 14651 1 0.16500 119244.000000
9375 15807 1 0.16500 119244.000000
9375 17477 1 0.16500 119244.000000
9376 14211 1 0.16500 119244.000000
9376 15855 1 0.16500 119244.000000
9377 14211 1 0.16500 119244.000000
9377 15210 1 0.16500 119244.000000
9378 14212 1 0.16500 119244.000000
9378 15193 1 0.16500 119244.000000
9379 14212 1 0.16500 119244.000000
9379 14446 1 0.16500 119244.000000
9380 14213 1 0.16500 119244.000000
9380 14921 1 0.16500 119244.000000
9381 14213 1 0.16500 119244.000000
9381 16062 1 0.16500 119244.000000
9382 14214 1 0.16500 119244.000000
9382 15852 1 0.16500 119244.000000
9383 14214 1 0.16500 119244.000000
9383 14275 1 0.16500 119244.000000
9384 13855 1 0.16500 119244.000000
9384 14215 1 0.16500 119244.000000
9385 14216 1 0.16500 119244.000000
9385 16140 1 0.16500 119244.000000
9386 14216 1 0.16500 119244.000000
9386 14476 1 0.16500 119244.000000
9387 14216 1 0.16500 119244.000000
9387 15985 1 0.16500 119244.000000
9388 15747 1 0.16500 119244.000000
9388 23841 1 0.16500 119244.000000
9389 14217 1 0.16500 119244.000000
9389 15266 1 0.16500 119244.000000
9390 14217 1 0.16500 119244.000000
9390 14301 1 0.16500 119244.000000
9391 14218 1 0.16500 119244.000000
9391 15343 1 0.16500 119244.000000
9392 14219 1 0.16500 119244.000000
9392 14484 1 0.16500 119244.000000
9393 14220 1 0.16500 119244.000000
9393 14504 1 0.16500 119244.000000
9394 14220 1 0.16500 119244.000000
9394 18573 1 0.16500 119244.000000
9395 14220 1 0.16500 119244.000000
9395 24507 1 0.16500 119244.000000
9396 14221 1 0.16500 119244.000000
9396 15841 1 0.16500 119244.000000
9397 14223 1 0.16500 119244.000000
9397 15415 1 0.16500 119244.000000
9398 14223 1 0.16500 119244.000000
9398 14640 1 0.16500 119244.000000
9399 14223 1 0.16500 119244.000000
9399 15899 1 0.16500 119244.000000
9400 14224 1 0.16500 119244.000000
9400 14301 1 0.16500 119244.000000
9401 14225 1 0.16500 119244.000000
9401 14385 1 0.16500 119244.000000
9402 14226 1 0.16500 119244.000000
9402 24739 1 0.16500 119244.000000
9403 14226 1 0.16500 119244.000000
9403 23934 1 0.16500 119244.000000
9404 14227 1 0.16500 119244.000000
9404 14942 1 0.16500 119244.000000
9405 17491 1 0.16500 119244.000000
9405 24009 1 0.16500 119244.000000
9406 14230 1 0.16500 119244.000000
9406 14986 1 0.16500 119244.000000
9407 14231 1 0.16500 119244.000000
9407 15393 1 0.16500 119244.000000
9408 14231 1 0.16500 119244.000000
9408 15874 1 0.16500 119244.000000
9409 14232 1 0.16500 119244.000000
9409 15627 1 0.16500 119244.000000
9410 14233 1 0.16500 119244.000000
9410 15308 1 0.16500 119244.000000
9411 14233 1 0.16500 119244.000000
9411 15875 1 0.16500 119244.000000
9412 14234 1 0.16500 119244.000000
9412 14259 1 0.16500 119244.000000
9413 14234 1 0.16500 119244.000000
9413 15171 1 0.16500 119244.000000
9414 14235 1 0.16500 119244.000000
9414 15180 1 0.16500 119244.000000
9415 14236 1 0.16500 119244.000000
9415 14611 1 0.16500 119244.000000
9416 14236 1 0.16500 119244.000000
9416 15330 1 0.16500 119244.000000
9417 14236 1 0.16500 119244.000000
9417 14928 1 0.16500 119244.000000
9418 14236 1 0.16500 119244.000000
9418 16212 1 0.16500 119244.000000
9419 14237 1 0.16500 119244.000000
9419 14533 1 0.16500 119244.000000
9420 14238 1 0.16500 119244.000000
9420 15897 1 0.16500 119244.000000
9421 12764 1 0.16500 119244.000000
9421 14238 1 0.16500 119244.000000
9422 14238 1 0.16500 119244.000000
9422 14966 1 0.16500 119244.000000
9423 14239 1 0.16500 119244.000000
9423 14567 1 0.16500 119244.000000
9424 14239 1 0.16500 119244.000000
9424 24045 1 0.16500 119244.000000
9425 14239 1 0.16500 119244.000000
9425 15476 1 0.16500 119244.000000
9426 14240 1 0.16500 119244.000000
9426 14305 1 0.16500 119244.000000
9427 14241 1 0.16500 119244.000000
9427 14876 1 0.16500 119244.000000
9428 14242 1 0.16500 119244.000000
9428 14460 1 0.16500 119244.000000
9429 14242 1 0.16500 119244.000000
9429 16184 1 0.16500 119244.000000
9430 14626 1 0.16500 119244.000000
9430 17505 1 0.16500 119244.000000
9431 14243 1 0.16500 119244.000000
9431 15611 1 0.16500 119244.000000
9432 14244 1 0.16500 119244.000000
9432 14321 1 0.16500 119244.000000
9433 14244 1 0.16500 119244.000000
9433 14924 1 0.16500 119244.000000
9434 14245 1 0.16500 119244.000000
9434 16171 1 0.16500 119244.000000
9435 14246 1 0.16500 119244.000000
9435 15656 1 0.16500 119244.000000
9436 14246 1 0.16500 119244.000000
9436 16144 1 0.16500 119244.000000
9437 14247 1 0.16500 119244.000000
9437 14412 1 0.16500 119244.000000
9438 14249 1 0.16500 119244.000000
9438 14752 1 0.16500 119244.000000
9439 14249 1 0.16500 119244.000000
9439 16199 1 0.16500 119244.000000
9440 14250 1 0.16500 119244.000000
9440 14949 1 0.16500 119244.000000
9441 14251 1 0.16500 119244.000000
9441 24243 1 0.16500 119244.000000
9442 14252 1 0.16500 119244.000000
9442 15103 1 0.16500 119244.000000
9443 14252 1 0.16500 119244.000000
9443 15793 1 0.16500 119244.000000
9444 14253 1 0.16500 119244.000000
9444 15728 1 0.16500 119244.000000
9445 14254 1 0.16500 119244.000000
9445 14589 1 0.16500 119244.000000
9446 14254 1 0.16500 119244.000000
9446 15170 1 0.16500 119244.000000
9447 14254 1 0.16500 119244.000000
9447 14585 1 0.16500 119244.000000
9448 14255 1 0.16500 119244.000000
9448 15450 1 0.16500 119244.000000
9449 14255 1 0.16500 119244.000000
9449 14650 1 0.16500 119244.000000
9450 14255 1 0.16500 119244.000000
9450 15790 1 0.16500 119244.000000
9451 14256 1 0.16500 119244.000000
9451 16075 1 0.16500 119244.000000
9452 13732 1 0.16500 119244.000000
9452 14280 1 0.16500 119244.000000
9453 14257 1 0.16500 119244.000000
9453 15205 1 0.16500 119244.000000
9454 14257 1 0.16500 119244.000000
9454 14365 1 0.16500 119244.000000
9455 14258 1 0.16500 119244.000000
9455 14932 1 0.16500 119244.000000
9456 16092 1 0.16500 119244.000000
9456 17995 1 0.16500 119244.000000
9457 14259 1 0.16500 119244.000000
9457 14834 1 0.16500 119244.000000
9458 14260 1 0.16500 119244.000000
9458 23922 1 0.16500 119244.000000
9459 14261 1 0.16500 119244.000000
9459 15252 1 0.16500 119244.000000
9460 14261 1 0.16500 119244.000000
9460 24063 1 0.16500 119244.000000
9461 14262 1 0.16500 119244.000000
9461 15908 1 0.16500 119244.000000
9462 14262 1 0.16500 119244.000000
9462 15702 1 0.16500 119244.000000
9463 14262 1 0.16500 119244.000000
9463 14773 1 0.16500 119244.000000
9464 14657 1 0.16500 119244.000000
9464 17519 1 0.16500 119244.000000
9465 12642 1 0.16500 119244.000000
9465 14514 1 0.16500 119244.000000
9466 14263 1 0.16500 119244.000000
9466 14718 1 0.16500 119244.000000
9467 14264 1 0.16500 119244.000000
9467 15422 1 0.16500 119244.000000
9468 14264 1 0.16500 119244.000000
9468 14593 1 0.16500 119244.000000
9469 12395 1 0.16500 119244.000000
9469 14265 1 0.16500 119244.000000
9470 14265 1 0.16500 119244.000000
9470 15757 1 0.16500 119244.000000
9471 14265 1 0.16500 119244.000000
9471 24378 1 0.16500 119244.000000
9472 14267 1 0.16500 119244.000000
9472 15415 1 0.16500 119244.000000
9473 14268 1 0.16500 119244.000000
9473 14380 1 0.16500 119244.000000
9474 14268 1 0.16500 119244.000000
9474 15918 1 0.16500 119244.000000
9475 14269 1 0.16500 119244.000000
9475 16197 1 0.16500 119244.000000
9476 14269 1 0.16500 119244.000000
9476 14832 1 0.16500 119244.000000
9477 14269 1 0.16500 119244.000000
9477 14777 1 0.16500 119244.000000
9478 14270 1 0.16500 119244.000000
9478 15726 1 0.16500 119244.000000
9479 14271 1 0.16500 119244.000000
9479 23892 1 0.16500 119244.000000
9480 14271 1 0.16500 119244.000000
9480 15606 1 0.16500 119244.000000
9481 14272 1 0.16500 119244.000000
9481 14594 1 0.16500 119244.000000
9482 14273 1 0.16500 119244.000000
9482 15166 1 0.16500 119244.000000
9483 14274 1 0.16500 119244.000000
9483 15132 1 0.16500 119244.000000
9484 14275 1 0.16500 119244.000000
9484 16138 1 0.16500 119244.000000
9485 14214 1 0.16500 119244.000000
9485 14527 1 0.16500 119244.000000
9486 12219 1 0.16500 119244.000000
9486 14974 1 0.16500 119244.000000
9487 14276 1 0.16500 119244.000000
9487 14324 1 0.16500 119244.000000
9488 14277 1 0.16500 119244.000000
9488 16054 1 0.16500 119244.000000
9489 14277 1 0.16500 119244.000000
9489 14893 1 0.16500 119244.000000
9490 14278 1 0.16500 119244.000000
9490 14713 1 0.16500 119244.000000
9491 14278 1 0.16500 119244.000000
9491 14526 1 0.16500 119244.000000
9492 23853 1 0.16500 119244.000000
9492 24075 1 0.16500 119244.000000
9493 14279 1 0.16500 119244.000000
9493 15359 1 0.16500 119244.000000
9494 14280 1 0.16500 119244.000000
9494 14403 1 0.16500 119244.000000
9495 14281 1 0.16500 119244.000000
9495 15062 1 0.16500 119244.000000
9496 14282 1 0.16500 119244.000000
9496 14658 1 0.16500 119244.000000
9497 14283 1 0.16500 119244.000000
9497 15296 1 0.16500 119244.000000
9498 14283 1 0.16500 119244.000000
9498 14774 1 0.16500 119244.000000
9499 14284 1 0.16500 119244.000000
9499 15255 1 0.16500 119244.000000
9500 15666 1 0.16500 119244.000000
9500 17547 1 0.16500 119244.000000
9501 14285 1 0.16500 119244.000000
9501 14301 1 0.16500 119244.000000
9502 14285 1 0.16500 119244.000000
9502 14738 1 0.16500 119244.000000
9503 14287 1 0.16500 119244.000000
9503 16079 1 0.16500 119244.000000
9504 14288 1 0.16500 119244.000000
9504 24270 1 0.16500 119244.000000
9505 15898 1 0.16500 119244.000000
9505 24369 1 0.16500 119244.000000
9506 23877 1 0.16500 119244.000000
9506 24369 1 0.16500 119244.000000
9507 14289 1 0.16500 119244.000000
9507 15341 1 0.16500 119244.000000
9508 13292 1 0.16500 119244.000000
9508 14289 1 0.16500 119244.000000
9509 14290 1 0.16500 119244.000000
9509 14859 1 0.16500 119244.000000
9510 12367 1 0.16500 119244.000000
9510 15373 1 0.16500 119244.000000
9511 14291 1 0.16500 119244.000000
9511 14351 1 0.16500 119244.000000
9512 14291 1 0.16500 119244.000000
9512 15266 1 0.16500 119244.000000
9513 14293 1 0.16500 119244.000000
9513 14325 1 0.16500 119244.000000
9514 14293 1 0.16500 119244.000000
9514 14807 1 0.16500 119244.000000
9515 14293 1 0.16500 119244.000000
9515 14723 1 0.16500 119244.000000
9516 14293 1 0.16500 119244.000000
9516 16138 1 0.16500 119244.000000
9517 11922 1 0.16500 119244.000000
9517 15359 1 0.16500 119244.000000
9518 14295 1 0.16500 119244.000000
9518 15500 1 0.16500 119244.000000
9519 14296 1 0.16500 119244.000000
9519 14440 1 0.16500 119244.000000
9520 14862 1 0.16500 119244.000000
9520 23889 1 0.16500 119244.000000
9521 14297 1 0.16500 119244.000000
9521 14378 1 0.16500 119244.000000
9522 14298 1 0.16500 119244.000000
9522 16209 1 0.16500 119244.000000
9523 14299 1 0.16500 119244.000000
9523 16067 1 0.16500 119244.000000
9524 14299 1 0.16500 119244.000000
9524 16010 1 0.16500 119244.000000
9525 14300 1 0.16500 119244.000000
9525 15505 1 0.16500 119244.000000
9526 14990 1 0.16500 119244.000000
9526 23892 1 0.16500 119244.000000
9527 14302 1 0.16500 119244.000000
9527 15291 1 0.16500 119244.000000
9528 14302 1 0.16500 119244.000000
9528 15511 1 0.16500 119244.000000
9529 14303 1 0.16500 119244.000000
9529 14374 1 0.16500 119244.000000
9530 14303 1 0.16500 119244.000000
9530 14446 1 0.16500 119244.000000
9531 14303 1 0.16500 119244.000000
9531 15327 1 0.16500 119244.000000
9532 14960 1 0.16500 119244.000000
9532 15440 1 0.16500 119244.000000
9533 14304 1 0.16500 119244.000000
9533 14960 1 0.16500 119244.000000
9534 14304 1 0.16500 119244.000000
9534 16162 1 0.16500 119244.000000
9535 14305 1 0.16500 119244.000000
9535 14757 1 0.16500 119244.000000
9536 14306 1 0.16500 119244.000000
9536 15700 1 0.16500 119244.000000
9537 14306 1 0.16500 119244.000000
9537 15184 1 0.16500 119244.000000
9538 14307 1 0.16500 119244.000000
9538 14479 1 0.16500 119244.000000
9539 14307 1 0.16500 119244.000000
9539 16046 1 0.16500 119244.000000
9540 14308 1 0.16500 119244.000000
9540 14431 1 0.16500 119244.000000
9541 14309 1 0.16500 119244.000000
9541 24531 1 0.16500 119244.000000
9542 14309 1 0.16500 119244.000000
9542 17771 1 0.16500 119244.000000
9543 14309 1 0.16500 119244.000000
9543 15674 1 0.16500 119244.000000
9544 14309 1 0.16500 119244.000000
9544 14700 1 0.16500 119244.000000
9545 14310 1 0.16500 119244.000000
9545 14987 1 0.16500 119244.000000
9546 14311 1 0.16500 119244.000000
9546 16042 1 0.16500 119244.000000
9547 14731 1 0.16500 119244.000000
9547 17561 1 0.16500 119244.000000
9548 14427 1 0.16500 119244.000000
9548 17561 1 0.16500 119244.000000
9549 16861 1 0.16500 119244.000000
9549 24318 1 0.16500 119244.000000
9550 14313 1 0.16500 119244.000000
9550 15003 1 0.16500 119244.000000
9551 14313 1 0.16500 119244.000000
9551 15069 1 0.16500 119244.000000
9552 14314 1 0.16500 119244.000000
9552 15775 1 0.16500 119244.000000
9553 14314 1 0.16500 119244.000000
9553 15699 1 0.16500 119244.000000
9554 14314 1 0.16500 119244.000000
9554 14819 1 0.16500 119244.000000
9555 14315 1 0.16500 119244.000000
9555 15304 1 0.16500 119244.000000
9556 14316 1 0.16500 119244.000000
9556 23928 1 0.16500 119244.000000
9557 14316 1 0.16500 119244.000000
9557 23946 1 0.16500 119244.000000
9558 21861 1 0.16500 119244.000000
9558 24162 1 0.16500 119244.000000
9559 14317 1 0.16500 119244.000000
9559 14766 1 0.16500 119244.000000
9560 14317 1 0.16500 119244.000000
9560 15396 1 0.16500 119244.000000
9561 14318 1 0.16500 119244.000000
9561 24450 1 0.16500 119244.000000
9562 14318 1 0.16500 119244.000000
9562 24144 1 0.16500 119244.000000
9563 14662 1 0.16500 119244.000000
9563 17589 1 0.16500 119244.000000
9564 14319 1 0.16500 119244.000000
9564 14673 1 0.16500 119244.000000
9565 14320 1 0.16500 119244.000000
9565 16018 1 0.16500 119244.000000
9566 14320 1 0.16500 119244.000000
9566 15842 1 0.16500 119244.000000
9567 14244 1 0.16500 119244.000000
9567 15178 1 0.16500 119244.000000
9568 13682 1 0.16500 119244.000000
9568 17603 1 0.16500 119244.000000
9569 14322 1 0.16500 119244.000000
9569 15242 1 0.16500 119244.000000
9570 14322 1 0.16500 119244.000000
9570 14794 1 0.16500 119244.000000
9571 14323 1 0.16500 119244.000000
9571 14757 1 0.16500 119244.000000
9572 14325 1 0.16500 119244.000000
9572 14891 1 0.16500 119244.000000
9573 14326 1 0.16500 119244.000000
9573 15598 1 0.16500 119244.000000
9574 14327 1 0.16500 119244.000000
9574 24234 1 0.16500 119244.000000
9575 14327 1 0.16500 119244.000000
9575 24177 1 0.16500 119244.000000
9576 14328 1 0.16500 119244.000000
9576 24546 1 0.16500 119244.000000
9577 14328 1 0.16500 119244.000000
9577 16115 1 0.16500 119244.000000
9578 14329 1 0.16500 119244.000000
9578 24558 1 0.16500 119244.000000
9579 14330 1 0.16500 119244.000000
9579 14813 1 0.16500 119244.000000
9580 14331 1 0.16500 119244.000000
9580 16160 1 0.16500 119244.000000
9581 14332 1 0.16500 119244.000000
9581 24264 1 0.16500 119244.000000
9582 14332 1 0.16500 119244.000000
9582 15477 1 0.16500 119244.000000
9583 14332 1 0.16500 119244.000000
9583 24684 1 0.16500 119244.000000
9584 14335 1 0.16500 119244.000000
9584 15949 1 0.16500 119244.000000
9585 14335 1 0.16500 119244.000000
9585 15466 1 0.16500 119244.000000
9586 14336 1 0.16500 119244.000000
9586 15989 1 0.16500 119244.000000
9587 14337 1 0.16500 119244.000000
9587 15730 1 0.16500 119244.000000
9588 14338 1 0.16500 119244.000000
9588 15912 1 0.16500 119244.000000
9589 14338 1 0.16500 119244.000000
9589 15911 1 0.16500 119244.000000
9590 14338 1 0.16500 119244.000000
9590 15154 1 0.16500 119244.000000
9591 14340 1 0.16500 119244.000000
9591 14649 1 0.16500 119244.000000
9592 14340 1 0.16500 119244.000000
9592 14700 1 0.16500 119244.000000
9593 14341 1 0.16500 119244.000000
9593 15477 1 0.16500 119244.000000
9594 14341 1 0.16500 119244.000000
9594 15348 1 0.16500 119244.000000
9595 14342 1 0.16500 119244.000000
9595 15620 1 0.16500 119244.000000
9596 14342 1 0.16500 119244.000000
9596 14415 1 0.16500 119244.000000
9597 14945 1 0.16500 119244.000000
9597 15620 1 0.16500 119244.000000
9598 14343 1 0.16500 119244.000000
9598 14437 1 0.16500 119244.000000
9599 14343 1 0.16500 119244.000000
9599 15732 1 0.16500 119244.000000
9600 14344 1 0.16500 119244.000000
9600 15481 1 0.16500 119244.000000
9601 14568 1 0.16500 119244.000000
9601 23895 1 0.16500 119244.000000
9602 23895 1 0.16500 119244.000000
9602 24165 1 0.16500 119244.000000
9603 14345 1 0.16500 119244.000000
9603 24054 1 0.16500 119244.000000
9604 14346 1 0.16500 119244.000000
9604 15684 1 0.16500 119244.000000
9605 14346 1 0.16500 119244.000000
9605 14479 1 0.16500 119244.000000
9606 15458 1 0.16500 119244.000000
9606 23898 1 0.16500 119244.000000
9607 14347 1 0.16500 119244.000000
9607 15275 1 0.16500 119244.000000
9608 14347 1 0.16500 119244.000000
9608 15533 1 0.16500 119244.000000
9609 14348 1 0.16500 119244.000000
9609 15783 1 0.16500 119244.000000
9610 15783 1 0.16500 119244.000000
9610 15805 1 0.16500 119244.000000
9611 15690 1 0.16500 119244.000000
9611 15783 1 0.16500 119244.000000
9612 14349 1 0.16500 119244.000000
9612 15862 1 0.16500 119244.000000
9613 14349 1 0.16500 119244.000000
9613 15300 1 0.16500 119244.000000
9614 14350 1 0.16500 119244.000000
9614 15008 1 0.16500 119244.000000
9615 14350 1 0.16500 119244.000000
9615 15326 1 0.16500 119244.000000
9616 14352 1 0.16500 119244.000000
9616 15311 1 0.16500 119244.000000
9617 14352 1 0.16500 119244.000000
9617 16076 1 0.16500 119244.000000
9618 14353 1 0.16500 119244.000000
9618 15484 1 0.16500 119244.000000
9619 14354 1 0.16500 119244.000000
9619 15028 1 0.16500 119244.000000
9620 14355 1 0.16500 119244.000000
9620 16108 1 0.16500 119244.000000
9621 14731 1 0.16500 119244.000000
9621 21201 1 0.16500 119244.000000
9622 17631 1 0.16500 119244.000000
9622 18037 1 0.16500 119244.000000
9623 14359 1 0.16500 119244.000000
9623 15836 1 0.16500 119244.000000
9624 14359 1 0.16500 119244.000000
9624 15819 1 0.16500 119244.000000
9625 14359 1 0.16500 119244.000000
9625 15641 1 0.16500 119244.000000
9626 14361 1 0.16500 119244.000000
9626 15866 1 0.16500 119244.000000
9627 14361 1 0.16500 119244.000000
9627 15088 1 0.16500 119244.000000
9628 14361 1 0.16500 119244.000000
9628 15118 1 0.16500 119244.000000
9629 14361 1 0.16500 119244.000000
9629 14441 1 0.16500 119244.000000
9630 14362 1 0.16500 119244.000000
9630 15782 1 0.16500 119244.000000
9631 14362 1 0.16500 119244.000000
9631 14653 1 0.16500 119244.000000
9632 14363 1 0.16500 119244.000000
9632 15365 1 0.16500 119244.000000
9633 15195 1 0.16500 119244.000000
9633 15365 1 0.16500 119244.000000
9634 14363 1 0.16500 119244.000000
9634 16144 1 0.16500 119244.000000
9635 14364 1 0.16500 119244.000000
9635 14725 1 0.16500 119244.000000
9636 14364 1 0.16500 119244.000000
9636 14796 1 0.16500 119244.000000
9637 14365 1 0.16500 119244.000000
9637 15353 1 0.16500 119244.000000
9638 14366 1 0.16500 119244.000000
9638 16061 1 0.16500 119244.000000
9639 14366 1 0.16500 119244.000000
9639 16145 1 0.16500 119244.000000
9640 14367 1 0.16500 119244.000000
9640 14894 1 0.16500 119244.000000
9641 14368 1 0.16500 119244.000000
9641 14652 1 0.16500 119244.000000
9642 14369 1 0.16500 119244.000000
9642 24177 1 0.16500 119244.000000
9643 14369 1 0.16500 119244.000000
9643 17883 1 0.16500 119244.000000
9644 15965 1 0.16500 119244.000000
9644 17645 1 0.16500 119244.000000
9645 17645 1 0.16500 119244.000000
9645 24471 1 0.16500 119244.000000
9646 14370 1 0.16500 119244.000000
9646 15664 1 0.16500 119244.000000
9647 14370 1 0.16500 119244.000000
9647 15509 1 0.16500 119244.000000
9648 17911 1 0.16500 119244.000000
9648 23904 1 0.16500 119244.000000
9649 14372 1 0.16500 119244.000000
9649 15425 1 0.16500 119244.000000
9650 14372 1 0.16500 119244.000000
9650 15666 1 0.16500 119244.000000
9651 14372 1 0.16500 119244.000000
9651 15849 1 0.16500 119244.000000
9652 14373 1 0.16500 119244.000000
9652 24291 1 0.16500 119244.000000
9653 14970 1 0.16500 119244.000000
9653 23907 1 0.16500 119244.000000
9654 15557 1 0.16500 119244.000000
9654 23913 1 0.16500 119244.000000
9655 15229 1 0.16500 119244.000000
9655 15410 1 0.16500 119244.000000
9656 14376 1 0.16500 119244.000000
9656 15410 1 0.16500 119244.000000
9657 14377 1 0.16500 119244.000000
9657 15016 1 0.16500 119244.000000
9658 14378 1 0.16500 119244.000000
9658 15255 1 0.16500 119244.000000
9659 14378 1 0.16500 119244.000000
9659 14953 1 0.16500 119244.000000
9660 14378 1 0.16500 119244.000000
9660 15857 1 0.16500 119244.000000
9661 14379 1 0.16500 119244.000000
9661 15520 1 0.16500 119244.000000
9662 14379 1 0.16500 119244.000000
9662 14776 1 0.16500 119244.000000
9663 14379 1 0.16500 119244.000000
9663 23949 1 0.16500 119244.000000
9664 14380 1 0.16500 119244.000000
9664 15709 1 0.16500 119244.000000
9665 14381 1 0.16500 119244.000000
9665 23958 1 0.16500 119244.000000
9666 14381 1 0.16500 119244.000000
9666 14737 1 0.16500 119244.000000
9667 14382 1 0.16500 119244.000000
9667 15632 1 0.16500 119244.000000
9668 14382 1 0.16500 119244.000000
9668 24489 1 0.16500 119244.000000
9669 14382 1 0.16500 119244.000000
9669 14525 1 0.16500 119244.000000
9670 14382 1 0.16500 119244.000000
9670 15323 1 0.16500 119244.000000
9671 14383 1 0.16500 119244.000000
9671 14569 1 0.16500 119244.000000
9672 17295 1 0.16500 119244.000000
9672 23916 1 0.16500 119244.000000
9673 16017 1 0.16500 119244.000000
9673 23919 1 0.16500 119244.000000
9674 14384 1 0.16500 119244.000000
9674 14657 1 0.16500 119244.000000
9675 14385 1 0.16500 119244.000000
9675 15651 1 0.16500 119244.000000
9676 14386 1 0.16500 119244.000000
9676 14516 1 0.16500 119244.000000
9677 14387 1 0.16500 119244.000000
9677 15145 1 0.16500 119244.000000
9678 14387 1 0.16500 119244.000000
9678 24120 1 0.16500 119244.000000
9679 14387 1 0.16500 119244.000000
9679 24216 1 0.16500 119244.000000
9680 14388 1 0.16500 119244.000000
9680 16048 1 0.16500 119244.000000
9681 14388 1 0.16500 119244.000000
9681 14752 1 0.16500 119244.000000
9682 14388 1 0.16500 119244.000000
9682 14880 1 0.16500 119244.000000
9683 16106 1 0.16500 119244.000000
9683 23922 1 0.16500 119244.000000
9684 14389 1 0.16500 119244.000000
9684 14756 1 0.16500 119244.000000
9685 14390 1 0.16500 119244.000000
9685 15396 1 0.16500 119244.000000
9686 14390 1 0.16500 119244.000000
9686 15158 1 0.16500 119244.000000
9687 15403 1 0.16500 119244.000000
9687 16139 1 0.16500 119244.000000
9688 14391 1 0.16500 119244.000000
9688 16139 1 0.16500 119244.000000
9689 14392 1 0.16500 119244.000000
9689 15843 1 0.16500 119244.000000
9690 23925 1 0.16500 119244.000000
9690 24372 1 0.16500 119244.000000
9691 23928 1 0.16500 119244.000000
9691 24483 1 0.16500 119244.000000
9692 14393 1 0.16500 119244.000000
9692 15795 1 0.16500 119244.000000
9693 14394 1 0.16500 119244.000000
9693 16125 1 0.16500 119244.000000
9694 14395 1 0.16500 119244.000000
9694 14597 1 0.16500 119244.000000
9695 14395 1 0.16500 119244.000000
9695 15161 1 0.16500 119244.000000
9696 14396 1 0.16500 119244.000000
9696 16104 1 0.16500 119244.000000
9697 14396 1 0.16500 119244.000000
9697 15306 1 0.16500 119244.000000
9698 14397 1 0.16500 119244.000000
9698 14776 1 0.16500 119244.000000
9699 14398 1 0.16500 119244.000000
9699 15247 1 0.16500 119244.000000
9700 14398 1 0.16500 119244.000000
9700 15849 1 0.16500 119244.000000
9701 14398 1 0.16500 119244.000000
9701 24480 1 0.16500 119244.000000
9702 14399 1 0.16500 119244.000000
9702 14416 1 0.16500 119244.000000
9703 14399 1 0.16500 119244.000000
9703 15054 1 0.16500 119244.000000
9704 14399 1 0.16500 119244.000000
9704 15607 1 0.16500 119244.000000
9705 14400 1 0.16500 119244.000000
9705 15642 1 0.16500 119244.000000
9706 14400 1 0.16500 119244.000000
9706 15529 1 0.16500 119244.000000
9707 14553 1 0.16500 119244.000000
9707 15642 1 0.16500 119244.000000
9708 14401 1 0.16500 119244.000000
9708 15547 1 0.16500 119244.000000
9709 11544 1 0.16500 119244.000000
9709 14402 1 0.16500 119244.000000
9710 14403 1 0.16500 119244.000000
9710 15361 1 0.16500 119244.000000
9711 14403 1 0.16500 119244.000000
9711 15308 1 0.16500 119244.000000
9712 14404 1 0.16500 119244.000000
9712 14775 1 0.16500 119244.000000
9713 14404 1 0.16500 119244.000000
9713 14933 1 0.16500 119244.000000
9714 14405 1 0.16500 119244.000000
9714 15576 1 0.16500 119244.000000
9715 14405 1 0.16500 119244.000000
9715 15329 1 0.16500 119244.000000
9716 14406 1 0.16500 119244.000000
9716 16184 1 0.16500 119244.000000
9717 14406 1 0.16500 119244.000000
9717 14635 1 0.16500 119244.000000
9718 14407 1 0.16500 119244.000000
9718 14412 1 0.16500 119244.000000
9719 14408 1 0.16500 119244.000000
9719 15446 1 0.16500 119244.000000
9720 14408 1 0.16500 119244.000000
9720 14930 1 0.16500 119244.000000
9721 14408 1 0.16500 119244.000000
9721 14582 1 0.16500 119244.000000
9722 14410 1 0.16500 119244.000000
9722 14887 1 0.16500 119244.000000
9723 14410 1 0.16500 119244.000000
9723 15582 1 0.16500 119244.000000
9724 14411 1 0.16500 119244.000000
9724 15458 1 0.16500 119244.000000
9725 14412 1 0.16500 119244.000000
9725 14649 1 0.16500 119244.000000
9726 14413 1 0.16500 119244.000000
9726 15656 1 0.16500 119244.000000
9727 11689 1 0.16500 119244.000000
9727 23937 1 0.16500 119244.000000
9728 14414 1 0.16500 119244.000000
9728 15361 1 0.16500 119244.000000
9729 14998 1 0.16500 119244.000000
9729 15270 1 0.16500 119244.000000
9730 14415 1 0.16500 119244.000000
9730 15270 1 0.16500 119244.000000
9731 14417 1 0.16500 119244.000000
9731 15333 1 0.16500 119244.000000
9732 14418 1 0.16500 119244.000000
9732 24246 1 0.16500 119244.000000
9733 14418 1 0.16500 119244.000000
9733 15693 1 0.16500 119244.000000
9734 14418 1 0.16500 119244.000000
9734 24351 1 0.16500 119244.000000
9735 14418 1 0.16500 119244.000000
9735 16034 1 0.16500 119244.000000
9736 14419 1 0.16500 119244.000000
9736 14681 1 0.16500 119244.000000
9737 14419 1 0.16500 119244.000000
9737 15109 1 0.16500 119244.000000
9738 14419 1 0.16500 119244.000000
9738 15155 1 0.16500 119244.000000
9739 14420 1 0.16500 119244.000000
9739 15273 1 0.16500 119244.000000
9740 12739 1 0.16500 119244.000000
9740 24390 1 0.16500 119244.000000
9741 14422 1 0.16500 119244.000000
9741 15208 1 0.16500 119244.000000
9742 14423 1 0.16500 119244.000000
9742 15033 1 0.16500 119244.000000
9743 14423 1 0.16500 119244.000000
9743 24396 1 0.16500 119244.000000
9744 14424 1 0.16500 119244.000000
9744 24420 1 0.16500 119244.000000
9745 14424 1 0.16500 119244.000000
9745 15780 1 0.16500 119244.000000
9746 14425 1 0.16500 119244.000000
9746 15254 1 0.16500 119244.000000
9747 14425 1 0.16500 119244.000000
9747 15419 1 0.16500 119244.000000
9748 14426 1 0.16500 119244.000000
9748 16119 1 0.16500 119244.000000
9749 14427 1 0.16500 119244.000000
9749 16126 1 0.16500 119244.000000
9750 14427 1 0.16500 119244.000000
9750 14529 1 0.16500 119244.000000
9751 14428 1 0.16500 119244.000000
9751 24216 1 0.16500 119244.000000
9752 14428 1 0.16500 119244.000000
9752 15285 1 0.16500 119244.000000
9753 14428 1 0.16500 119244.000000
9753 15058 1 0.16500 119244.000000
9754 14429 1 0.16500 119244.000000
9754 14786 1 0.16500 119244.000000
9755 14430 1 0.16500 119244.000000
9755 14444 1 0.16500 119244.000000
9756 14430 1 0.16500 119244.000000
9756 24474 1 0.16500 119244.000000
9757 14434 1 0.16500 119244.000000
9757 14831 1 0.16500 119244.000000
9758 14434 1 0.16500 119244.000000
9758 14703 1 0.16500 119244.000000
9759 14545 1 0.16500 119244.000000
9759 15126 1 0.16500 119244.000000
9760 14436 1 0.16500 119244.000000
9760 14545 1 0.16500 119244.000000
9761 14437 1 0.16500 119244.000000
9761 14456 1 0.16500 119244.000000
9762 14438 1 0.16500 119244.000000
9762 16013 1 0.16500 119244.000000
9763 14438 1 0.16500 119244.000000
9763 14989 1 0.16500 119244.000000
9764 14462 1 0.16500 119244.000000
9764 17687 1 0.16500 119244.000000
9765 17687 1 0.16500 119244.000000
9765 18079 1 0.16500 119244.000000
9766 14439 1 0.16500 119244.000000
9766 24255 1 0.16500 119244.000000
9767 14440 1 0.16500 119244.000000
9767 14882 1 0.16500 119244.000000
9768 14440 1 0.16500 119244.000000
9768 24171 1 0.16500 119244.000000
9769 14441 1 0.16500 119244.000000
9769 14511 1 0.16500 119244.000000
9770 14441 1 0.16500 119244.000000
9770 15206 1 0.16500 119244.000000
9771 14442 1 0.16500 119244.000000
9771 16157 1 0.16500 119244.000000
9772 14442 1 0.16500 119244.000000
9772 15479 1 0.16500 119244.000000
9773 14443 1 0.16500 119244.000000
9773 15144 1 0.16500 119244.000000
9774 14444 1 0.16500 119244.000000
9774 15580 1 0.16500 119244.000000
9775 14445 1 0.16500 119244.000000
9775 15468 1 0.16500 119244.000000
9776 14446 1 0.16500 119244.000000
9776 16110 1 0.16500 119244.000000
9777 14212 1 0.16500 119244.000000
9777 14917 1 0.16500 119244.000000
9778 14447 1 0.16500 119244.000000
9778 15625 1 0.16500 119244.000000
9779 14447 1 0.16500 119244.000000
9779 15180 1 0.16500 119244.000000
9780 14448 1 0.16500 119244.000000
9780 15859 1 0.16500 119244.000000
9781 14449 1 0.16500 119244.000000
9781 15687 1 0.16500 119244.000000
9782 14449 1 0.16500 119244.000000
9782 15997 1 0.16500 119244.000000
9783 14450 1 0.16500 119244.000000
9783 16003 1 0.16500 119244.000000
9784 14450 1 0.16500 119244.000000
9784 14584 1 0.16500 119244.000000
9785 14450 1 0.16500 119244.000000
9785 15230 1 0.16500 119244.000000
9786 14451 1 0.16500 119244.000000
9786 15653 1 0.16500 119244.000000
9787 14452 1 0.16500 119244.000000
9787 14510 1 0.16500 119244.000000
9788 12981 1 0.16500 119244.000000
9788 14452 1 0.16500 119244.000000
9789 14453 1 0.16500 119244.000000
9789 15472 1 0.16500 119244.000000
9790 14454 1 0.16500 119244.000000
9790 15868 1 0.16500 119244.000000
9791 14454 1 0.16500 119244.000000
9791 15122 1 0.16500 119244.000000
9792 14454 1 0.16500 119244.000000
9792 24024 1 0.16500 119244.000000
9793 14456 1 0.16500 119244.000000
9793 16205 1 0.16500 119244.000000
9794 14457 1 0.16500 119244.000000
9794 15677 1 0.16500 119244.000000
9795 14457 1 0.16500 119244.000000
9795 15360 1 0.16500 119244.000000
9796 14458 1 0.16500 119244.000000
9796 14778 1 0.16500 119244.000000
9797 14458 1 0.16500 119244.000000
9797 18501 1 0.16500 119244.000000
9798 14459 1 0.16500 119244.000000
9798 14978 1 0.16500 119244.000000
9799 14459 1 0.16500 119244.000000
9799 15209 1 0.16500 119244.000000
9800 14461 1 0.16500 119244.000000
9800 14727 1 0.16500 119244.000000
9801 14461 1 0.16500 119244.000000
9801 15191 1 0.16500 119244.000000
9802 14462 1 0.16500 119244.000000
9802 14828 1 0.16500 119244.000000
9803 14462 1 0.16500 119244.000000
9803 24156 1 0.16500 119244.000000
9804 14463 1 0.16500 119244.000000
9804 24303 1 0.16500 119244.000000
9805 14465 1 0.16500 119244.000000
9805 14601 1 0.16500 119244.000000
9806 16182 1 0.16500 119244.000000
9806 23958 1 0.16500 119244.000000
9807 14466 1 0.16500 119244.000000
9807 24600 1 0.16500 119244.000000
9808 15928 1 0.16500 119244.000000
9808 23961 1 0.16500 119244.000000
9809 14467 1 0.16500 119244.000000
9809 14544 1 0.16500 119244.000000
9810 14467 1 0.16500 119244.000000
9810 15147 1 0.16500 119244.000000
9811 14468 1 0.16500 119244.000000
9811 14506 1 0.16500 119244.000000
9812 14468 1 0.16500 119244.000000
9812 16121 1 0.16500 119244.000000
9813 14469 1 0.16500 119244.000000
9813 14475 1 0.16500 119244.000000
9814 14469 1 0.16500 119244.000000
9814 16042 1 0.16500 119244.000000
9815 14469 1 0.16500 119244.000000
9815 15369 1 0.16500 119244.000000
9816 14470 1 0.16500 119244.000000
9816 14591 1 0.16500 119244.000000
9817 13271 1 0.16500 119244.000000
9817 14471 1 0.16500 119244.000000
9818 14471 1 0.16500 119244.000000
9818 15824 1 0.16500 119244.000000
9819 14472 1 0.16500 119244.000000
9819 15472 1 0.16500 119244.000000
9820 14472 1 0.16500 119244.000000
9820 15624 1 0.16500 119244.000000
9821 14474 1 0.16500 119244.000000
9821 14843 1 0.16500 119244.000000
9822 14612 1 0.16500 119244.000000
9822 23964 1 0.16500 119244.000000
9823 23964 1 0.16500 119244.000000
9823 24045 1 0.16500 119244.000000
9824 14755 1 0.16500 119244.000000
9824 23967 1 0.16500 119244.000000
9825 15881 1 0.16500 119244.000000
9825 17715 1 0.16500 119244.000000
9826 14475 1 0.16500 119244.000000
9826 15848 1 0.16500 119244.000000
9827 14476 1 0.16500 119244.000000
9827 24408 1 0.16500 119244.000000
9828 14476 1 0.16500 119244.000000
9828 24165 1 0.16500 119244.000000
9829 14477 1 0.16500 119244.000000
9829 15513 1 0.16500 119244.000000
9830 14477 1 0.16500 119244.000000
9830 14829 1 0.16500 119244.000000
9831 14478 1 0.16500 119244.000000
9831 15913 1 0.16500 119244.000000
9832 14478 1 0.16500 119244.000000
9832 15540 1 0.16500 119244.000000
9833 14478 1 0.16500 119244.000000
9833 16028 1 0.16500 119244.000000
9834 14479 1 0.16500 119244.000000
9834 15328 1 0.16500 119244.000000
9835 14480 1 0.16500 119244.000000
9835 24537 1 0.16500 119244.000000
9836 14481 1 0.16500 119244.000000
9836 14640 1 0.16500 119244.000000
9837 13547 1 0.16500 119244.000000
9837 14481 1 0.16500 119244.000000
9838 14481 1 0.16500 119244.000000
9838 14987 1 0.16500 119244.000000
9839 12762 1 0.16500 119244.000000
9839 14483 1 0.16500 119244.000000
9840 14483 1 0.16500 119244.000000
9840 15075 1 0.16500 119244.000000
9841 14484 1 0.16500 119244.000000
9841 14835 1 0.16500 119244.000000
9842 14484 1 0.16500 119244.000000
9842 14562 1 0.16500 119244.000000
9843 14486 1 0.16500 119244.000000
9843 14650 1 0.16500 119244.000000
9844 14486 1 0.16500 119244.000000
9844 24603 1 0.16500 119244.000000
9845 14488 1 0.16500 119244.000000
9845 16010 1 0.16500 119244.000000
9846 11458 1 0.16500 119244.000000
9846 14488 1 0.16500 119244.000000
9847 11291 1 0.16500 119244.000000
9847 14488 1 0.16500 119244.000000
9848 14489 1 0.16500 119244.000000
9848 14769 1 0.16500 119244.000000
9849 14490 1 0.16500 119244.000000
9849 15245 1 0.16500 119244.000000
9850 14490 1 0.16500 119244.000000
9850 16088 1 0.16500 119244.000000
9851 14491 1 0.16500 119244.000000
9851 15528 1 0.16500 119244.000000
9852 23976 1 0.16500 119244.000000
9852 24624 1 0.16500 119244.000000
9853 16112 1 0.16500 119244.000000
9853 23976 1 0.16500 119244.000000
9854 14492 1 0.16500 119244.000000
9854 16171 1 0.16500 119244.000000
9855 14494 1 0.16500 119244.000000
9855 15598 1 0.16500 119244.000000
9856 14494 1 0.16500 119244.000000
9856 14599 1 0.16500 119244.000000
9857 14495 1 0.16500 119244.000000
9857 15880 1 0.16500 119244.000000
9858 14496 1 0.16500 119244.000000
9858 14543 1 0.16500 119244.000000
9859 14496 1 0.16500 119244.000000
9859 24674 1 0.16500 119244.000000
9860 14497 1 0.16500 119244.000000
9860 15331 1 0.16500 119244.000000
9861 14497 1 0.16500 119244.000000
9861 15154 1 0.16500 119244.000000
9862 14498 1 0.16500 119244.000000
9862 15821 1 0.16500 119244.000000
9863 14498 1 0.16500 119244.000000
9863 15825 1 0.16500 119244.000000
9864 14499 1 0.16500 119244.000000
9864 14661 1 0.16500 119244.000000
9865 14500 1 0.16500 119244.000000
9865 14718 1 0.16500 119244.000000
9866 14500 1 0.16500 119244.000000
9866 15386 1 0.16500 119244.000000
9867 14501 1 0.16500 119244.000000
9867 15140 1 0.16500 119244.000000
9868 14501 1 0.16500 119244.000000
9868 16066 1 0.16500 119244.000000
9869 14501 1 0.16500 119244.000000
9869 15255 1 0.16500 119244.000000
9870 14502 1 0.16500 119244.000000
9870 14687 1 0.16500 119244.000000
9871 14503 1 0.16500 119244.000000
9871 15621 1 0.16500 119244.000000
9872 14503 1 0.16500 119244.000000
9872 15785 1 0.16500 119244.000000
9873 14504 1 0.16500 119244.000000
9873 15068 1 0.16500 119244.000000
9874 14504 1 0.16500 119244.000000
9874 14659 1 0.16500 119244.000000
9875 14505 1 0.16500 119244.000000
9875 16069 1 0.16500 119244.000000
9876 14505 1 0.16500 119244.000000
9876 15414 1 0.16500 119244.000000
9877 14506 1 0.16500 119244.000000
9877 24774 1 0.16500 119244.000000
9878 14506 1 0.16500 119244.000000
9878 15167 1 0.16500 119244.000000
9879 14507 1 0.16500 119244.000000
9879 15192 1 0.16500 119244.000000
9880 14508 1 0.16500 119244.000000
9880 16095 1 0.16500 119244.000000
9881 14508 1 0.16500 119244.000000
9881 15207 1 0.16500 119244.000000
9882 14509 1 0.16500 119244.000000
9882 15235 1 0.16500 119244.000000
9883 14509 1 0.16500 119244.000000
9883 15142 1 0.16500 119244.000000
9884 14510 1 0.16500 119244.000000
9884 14656 1 0.16500 119244.000000
9885 14513 1 0.16500 119244.000000
9885 16172 1 0.16500 119244.000000
9886 14516 1 0.16500 119244.000000
9886 16169 1 0.16500 119244.000000
9887 12799 1 0.16500 119244.000000
9887 15050 1 0.16500 119244.000000
9888 14518 1 0.16500 119244.000000
9888 15752 1 0.16500 119244.000000
9889 12799 1 0.16500 119244.000000
9889 14518 1 0.16500 119244.000000
9890 14519 1 0.16500 119244.000000
9890 15843 1 0.16500 119244.000000
9891 14519 1 0.16500 119244.000000
9891 15983 1 0.16500 119244.000000
9892 12608 1 0.16500 119244.000000
9892 14519 1 0.16500 119244.000000
9893 14520 1 0.16500 119244.000000
9893 14768 1 0.16500 119244.000000
9894 14520 1 0.16500 119244.000000
9894 15621 1 0.16500 119244.000000
9895 14521 1 0.16500 119244.000000
9895 15929 1 0.16500 119244.000000
9896 14522 1 0.16500 119244.000000
9896 14893 1 0.16500 119244.000000
9897 14523 1 0.16500 119244.000000
9897 16170 1 0.16500 119244.000000
9898 14523 1 0.16500 119244.000000
9898 14998 1 0.16500 119244.000000
9899 14524 1 0.16500 119244.000000
9899 24629 1 0.16500 119244.000000
9900 14526 1 0.16500 119244.000000
9900 15082 1 0.16500 119244.000000
9901 14526 1 0.16500 119244.000000
9901 15521 1 0.16500 119244.000000
9902 14526 1 0.16500 119244.000000
9902 14548 1 0.16500 119244.000000
9903 23988 1 0.16500 119244.000000
9903 24561 1 0.16500 119244.000000
9904 23988 1 0.16500 119244.000000
9904 24102 1 0.16500 119244.000000
9905 15442 1 0.16500 119244.000000
9905 23988 1 0.16500 119244.000000
9906 14527 1 0.16500 119244.000000
9906 14930 1 0.16500 119244.000000
9907 14527 1 0.16500 119244.000000
9907 15814 1 0.16500 119244.000000
9908 14528 1 0.16500 119244.000000
9908 14983 1 0.16500 119244.000000
9909 14528 1 0.16500 119244.000000
9909 15095 1 0.16500 119244.000000
9910 14529 1 0.16500 119244.000000
9910 14815 1 0.16500 119244.000000
9911 14530 1 0.16500 119244.000000
9911 15449 1 0.16500 119244.000000
9912 14531 1 0.16500 119244.000000
9912 15991 1 0.16500 119244.000000
9913 14532 1 0.16500 119244.000000
9913 15668 1 0.16500 119244.000000
9914 14535 1 0.16500 119244.000000
9914 15349 1 0.16500 119244.000000
9915 14535 1 0.16500 119244.000000
9915 14721 1 0.16500 119244.000000
9916 14536 1 0.16500 119244.000000
9916 14710 1 0.16500 119244.000000
9917 14537 1 0.16500 119244.000000
9917 15846 1 0.16500 119244.000000
9918 14537 1 0.16500 119244.000000
9918 14749 1 0.16500 119244.000000
9919 14538 1 0.16500 119244.000000
9919 15053 1 0.16500 119244.000000
9920 14538 1 0.16500 119244.000000
9920 15632 1 0.16500 119244.000000
9921 14539 1 0.16500 119244.000000
9921 15634 1 0.16500 119244.000000
9922 13926 1 0.16500 119244.000000
9922 14540 1 0.16500 119244.000000
9923 12636 1 0.16500 119244.000000
9923 16173 1 0.16500 119244.000000
9924 14541 1 0.16500 119244.000000
9924 16079 1 0.16500 119244.000000
9925 14541 1 0.16500 119244.000000
9925 14765 1 0.16500 119244.000000
9926 14542 1 0.16500 119244.000000
9926 15167 1 0.16500 119244.000000
9927 14543 1 0.16500 119244.000000
9927 24366 1 0.16500 119244.000000
9928 14544 1 0.16500 119244.000000
9928 15764 1 0.16500 119244.000000
9929 14546 1 0.16500 119244.000000
9929 15141 1 0.16500 119244.000000
9930 15687 1 0.16500 119244.000000
9930 23994 1 0.16500 119244.000000
9931 14547 1 0.16500 119244.000000
9931 15870 1 0.16500 119244.000000
9932 14547 1 0.16500 119244.000000
9932 15183 1 0.16500 119244.000000
9933 15751 1 0.16500 119244.000000
9933 23997 1 0.16500 119244.000000
9934 14548 1 0.16500 119244.000000
9934 14851 1 0.16500 119244.000000
9935 14549 1 0.16500 119244.000000
9935 14599 1 0.16500 119244.000000
9936 14550 1 0.16500 119244.000000
9936 15295 1 0.16500 119244.000000
9937 14550 1 0.16500 119244.000000
9937 15200 1 0.16500 119244.000000
9938 13268 1 0.16500 119244.000000
9938 14551 1 0.16500 119244.000000
9939 12176 1 0.16500 119244.000000
9939 14552 1 0.16500 119244.000000
9940 13860 1 0.16500 119244.000000
9940 14854 1 0.16500 119244.000000
9941 14553 1 0.16500 119244.000000
9941 15799 1 0.16500 119244.000000
9942 14553 1 0.16500 119244.000000
9942 14637 1 0.16500 119244.000000
9943 14555 1 0.16500 119244.000000
9943 14846 1 0.16500 119244.000000
9944 14556 1 0.16500 119244.000000
9944 15304 1 0.16500 119244.000000
9945 14557 1 0.16500 119244.000000
9945 15637 1 0.16500 119244.000000
9946 14557 1 0.16500 119244.000000
9946 14979 1 0.16500 119244.000000
9947 14558 1 0.16500 119244.000000
9947 15505 1 0.16500 119244.000000
9948 14558 1 0.16500 119244.000000
9948 15002 1 0.16500 119244.000000
9949 15291 1 0.16500 119244.000000
9949 24000 1 0.16500 119244.000000
9950 24000 1 0.16500 119244.000000
9950 24402 1 0.16500 119244.000000
9951 14559 1 0.16500 119244.000000
9951 15392 1 0.16500 119244.000000
9952 14559 1 0.16500 119244.000000
9952 15302 1 0.16500 119244.000000
9953 14559 1 0.16500 119244.000000
9953 15290 1 0.16500 119244.000000
9954 14559 1 0.16500 119244.000000
9954 15384 1 0.16500 119244.000000
9955 11430 1 0.16500 119244.000000
9955 15146 1 0.16500 119244.000000
9956 14562 1 0.16500 119244.000000
9956 14643 1 0.16500 119244.000000
9957 14563 1 0.16500 119244.000000
9957 15485 1 0.16500 119244.000000
9958 14564 1 0.16500 119244.000000
9958 15453 1 0.16500 119244.000000
9959 14565 1 0.16500 119244.000000
9959 15879 1 0.16500 119244.000000
9960 14565 1 0.16500 119244.000000
9960 15964 1 0.16500 119244.000000
9961 14566 1 0.16500 119244.000000
9961 15350 1 0.16500 119244.000000
9962 14567 1 0.16500 119244.000000
9962 15861 1 0.16500 119244.000000
9963 14567 1 0.16500 119244.000000
9963 14612 1 0.16500 119244.000000
9964 14568 1 0.16500 119244.000000
9964 15257 1 0.16500 119244.000000
9965 24003 1 0.16500 119244.000000
9965 24006 1 0.16500 119244.000000
9966 15934 1 0.16500 119244.000000
9966 24003 1 0.16500 119244.000000
9967 14569 1 0.16500 119244.000000
9967 14782 1 0.16500 119244.000000
9968 14570 1 0.16500 119244.000000
9968 14857 1 0.16500 119244.000000
9969 14348 1 0.16500 119244.000000
9969 14570 1 0.16500 119244.000000
9970 14571 1 0.16500 119244.000000
9970 15085 1 0.16500 119244.000000
9971 14573 1 0.16500 119244.000000
9971 24615 1 0.16500 119244.000000
9972 14573 1 0.16500 119244.000000
9972 14855 1 0.16500 119244.000000
9973 14574 1 0.16500 119244.000000
9973 15339 1 0.16500 119244.000000
9974 13494 1 0.16500 119244.000000
9974 14575 1 0.16500 119244.000000
9975 14575 1 0.16500 119244.000000
9975 14894 1 0.16500 119244.000000
9976 14576 1 0.16500 119244.000000
9976 15555 1 0.16500 119244.000000
9977 14577 1 0.16500 119244.000000
9977 15414 1 0.16500 119244.000000
9978 15953 1 0.16500 119244.000000
9978 18981 1 0.16500 119244.000000
9979 13420 1 0.16500 119244.000000
9979 14579 1 0.16500 119244.000000
9980 14579 1 0.16500 119244.000000
9980 14741 1 0.16500 119244.000000
9981 13015 1 0.16500 119244.000000
9981 14679 1 0.16500 119244.000000
9982 14581 1 0.16500 119244.000000
9982 15869 1 0.16500 119244.000000
9983 14582 1 0.16500 119244.000000
9983 15015 1 0.16500 119244.000000
9984 14583 1 0.16500 119244.000000
9984 15341 1 0.16500 119244.000000
9985 14583 1 0.16500 119244.000000
9985 15532 1 0.16500 119244.000000
9986 14584 1 0.16500 119244.000000
9986 16147 1 0.16500 119244.000000
9987 14586 1 0.16500 119244.000000
9987 15289 1 0.16500 119244.000000
9988 14587 1 0.16500 119244.000000
9988 15028 1 0.16500 119244.000000
9989 14587 1 0.16500 119244.000000
9989 15495 1 0.16500 119244.000000
9990 17785 1 0.16500 119244.000000
9990 24333 1 0.16500 119244.000000
9991 14588 1 0.16500 119244.000000
9991 18135 1 0.16500 119244.000000
9992 14588 1 0.16500 119244.000000
9992 24354 1 0.16500 119244.000000
9993 24009 1 0.16500 119244.000000
9993 24294 1 0.16500 119244.000000
9994 15121 1 0.16500 119244.000000
9994 15455 1 0.16500 119244.000000
9995 15455 1 0.16500 119244.000000
9995 24009 1 0.16500 119244.000000
9996 14589 1 0.16500 119244.000000
9996 15646 1 0.16500 119244.000000
9997 14592 1 0.16500 119244.000000
9997 15217 1 0.16500 119244.000000
9998 14592 1 0.16500 119244.000000
9998 15562 1 0.16500 119244.000000
9999 12555 1 0.16500 119244.000000
9999 14593 1 0.16500 119244.000000
10000 14593 1 0.16500 119244.000000
10000 14676 1 0.16500 119244.000000
10001 14593 1 0.16500 119244.000000
10001 15492 1 0.16500 119244.000000
10002 14595 1 0.16500 119244.000000
10002 15157 1 0.16500 119244.000000
10003 14595 1 0.16500 119244.000000
10003 15264 1 0.16500 119244.000000
10004 14595 1 0.16500 119244.000000
10004 24558 1 0.16500 119244.000000
10005 14596 1 0.16500 119244.000000
10005 15848 1 0.16500 119244.000000
10006 14596 1 0.16500 119244.000000
10006 15007 1 0.16500 119244.000000
10007 14597 1 0.16500 119244.000000
10007 16084 1 0.16500 119244.000000
10008 14598 1 0.16500 119244.000000
10008 15104 1 0.16500 119244.000000
10009 14599 1 0.16500 119244.000000
10009 15056 1 0.16500 119244.000000
10010 14600 1 0.16500 119244.000000
10010 14684 1 0.16500 119244.000000
10011 14600 1 0.16500 119244.000000
10011 16103 1 0.16500 119244.000000
10012 24012 1 0.16500 119244.000000
10012 24069 1 0.16500 119244.000000
10013 14602 1 0.16500 119244.000000
10013 15556 1 0.16500 119244.000000
10014 14602 1 0.16500 119244.000000
10014 15138 1 0.16500 119244.000000
10015 14603 1 0.16500 119244.000000
10015 14905 1 0.16500 119244.000000
10016 14604 1 0.16500 119244.000000
10016 15654 1 0.16500 119244.000000
10017 14604 1 0.16500 119244.000000
10017 15854 1 0.16500 119244.000000
10018 14605 1 0.16500 119244.000000
10018 15637 1 0.16500 119244.000000
10019 14605 1 0.16500 119244.000000
10019 15165 1 0.16500 119244.000000
10020 14605 1 0.16500 119244.000000
10020 15587 1 0.16500 119244.000000
10021 14696 1 0.16500 119244.000000
10021 24015 1 0.16500 119244.000000
10022 12938 1 0.16500 119244.000000
10022 14606 1 0.16500 119244.000000
10023 14606 1 0.16500 119244.000000
10023 15953 1 0.16500 119244.000000
10024 12938 1 0.16500 119244.000000
10024 16102 1 0.16500 119244.000000
10025 14607 1 0.16500 119244.000000
10025 15510 1 0.16500 119244.000000
10026 14608 1 0.16500 119244.000000
10026 15873 1 0.16500 119244.000000
10027 14609 1 0.16500 119244.000000
10027 14895 1 0.16500 119244.000000
10028 13733 1 0.16500 119244.000000
10028 14609 1 0.16500 119244.000000
10029 14611 1 0.16500 119244.000000
10029 15168 1 0.16500 119244.000000
10030 14613 1 0.16500 119244.000000
10030 24492 1 0.16500 119244.000000
10031 14614 1 0.16500 119244.000000
10031 14815 1 0.16500 119244.000000
10032 15039 1 0.16500 119244.000000
10032 22401 1 0.16500 119244.000000
10033 14615 1 0.16500 119244.000000
10033 18093 1 0.16500 119244.000000
10034 24021 1 0.16500 119244.000000
10034 24147 1 0.16500 119244.000000
10035 15136 1 0.16500 119244.000000
10035 24021 1 0.16500 119244.000000
10036 24021 1 0.16500 119244.000000
10036 24615 1 0.16500 119244.000000
10037 14618 1 0.16500 119244.000000
10037 16188 1 0.16500 119244.000000
10038 12309 1 0.16500 119244.000000
10038 14618 1 0.16500 119244.000000
10039 14619 1 0.16500 119244.000000
10039 16052 1 0.16500 119244.000000
10040 14620 1 0.16500 119244.000000
10040 14799 1 0.16500 119244.000000
10041 14621 1 0.16500 119244.000000
10041 15811 1 0.16500 119244.000000
10042 14622 1 0.16500 119244.000000
10042 15507 1 0.16500 119244.000000
10043 14622 1 0.16500 119244.000000
10043 15954 1 0.16500 119244.000000
10044 14624 1 0.16500 119244.000000
10044 15997 1 0.16500 119244.000000
10045 14624 1 0.16500 119244.000000
10045 15534 1 0.16500 119244.000000
10046 14625 1 0.16500 119244.000000
10046 24465 1 0.16500 119244.000000
10047 14625 1 0.16500 119244.000000
10047 24504 1 0.16500 119244.000000
10048 14626 1 0.16500 119244.000000
10048 24099 1 0.16500 119244.000000
10049 14627 1 0.16500 119244.000000
10049 24417 1 0.16500 119244.000000
10050 14627 1 0.16500 119244.000000
10050 15250 1 0.16500 119244.000000
10051 15024 1 0.16500 119244.000000
10051 24024 1 0.16500 119244.000000
10052 12846 1 0.16500 119244.000000
10052 16121 1 0.16500 119244.000000
10053 24027 1 0.16500 119244.000000
10053 24789 1 0.16500 119244.000000
10054 14629 1 0.16500 119244.000000
10054 14790 1 0.16500 119244.000000
10055 12830 1 0.16500 119244.000000
10055 14731 1 0.16500 119244.000000
10056 14631 1 0.16500 119244.000000
10056 16132 1 0.16500 119244.000000
10057 14632 1 0.16500 119244.000000
10057 15871 1 0.16500 119244.000000
10058 14632 1 0.16500 119244.000000
10058 15545 1 0.16500 119244.000000
10059 14634 1 0.16500 119244.000000
10059 16194 1 0.16500 119244.000000
10060 14634 1 0.16500 119244.000000
10060 15431 1 0.16500 119244.000000
10061 14634 1 0.16500 119244.000000
10061 15719 1 0.16500 119244.000000
10062 15151 1 0.16500 119244.000000
10062 16038 1 0.16500 119244.000000
10063 13621 1 0.16500 119244.000000
10063 24649 1 0.16500 119244.000000
10064 14636 1 0.16500 119244.000000
10064 15735 1 0.16500 119244.000000
10065 14638 1 0.16500 119244.000000
10065 15987 1 0.16500 119244.000000
10066 14638 1 0.16500 119244.000000
10066 15395 1 0.16500 119244.000000
10067 14639 1 0.16500 119244.000000
10067 15638 1 0.16500 119244.000000
10068 15084 1 0.16500 119244.000000
10068 24030 1 0.16500 119244.000000
10069 19941 1 0.16500 119244.000000
10069 24030 1 0.16500 119244.000000
10070 14643 1 0.16500 119244.000000
10070 15760 1 0.16500 119244.000000
10071 14644 1 0.16500 119244.000000
10071 14723 1 0.16500 119244.000000
10072 14645 1 0.16500 119244.000000
10072 14972 1 0.16500 119244.000000
10073 14645 1 0.16500 119244.000000
10073 15808 1 0.16500 119244.000000
10074 14646 1 0.16500 119244.000000
10074 15564 1 0.16500 119244.000000
10075 12740 1 0.16500 119244.000000
10075 24555 1 0.16500 119244.000000
10076 14647 1 0.16500 119244.000000
10076 24228 1 0.16500 119244.000000
10077 14648 1 0.16500 119244.000000
10077 15952 1 0.16500 119244.000000
10078 14648 1 0.16500 119244.000000
10078 16001 1 0.16500 119244.000000
10079 14648 1 0.16500 119244.000000
10079 16033 1 0.16500 119244.000000
10080 22245 1 0.16500 119244.000000
10080 24360 1 0.16500 119244.000000
10081 15144 1 0.16500 119244.000000
10081 24033 1 0.16500 119244.000000
10082 14210 1 0.16500 119244.000000
10082 18191 1 0.16500 119244.000000
10083 17827 1 0.16500 119244.000000
10083 24600 1 0.16500 119244.000000
10084 15544 1 0.16500 119244.000000
10084 21465 1 0.16500 119244.000000
10085 15759 1 0.16500 119244.000000
10085 24036 1 0.16500 119244.000000
10086 24036 1 0.16500 119244.000000
10086 24123 1 0.16500 119244.000000
10087 14653 1 0.16500 119244.000000
10087 24588 1 0.16500 119244.000000
10088 14654 1 0.16500 119244.000000
10088 14786 1 0.16500 119244.000000
10089 14655 1 0.16500 119244.000000
10089 15444 1 0.16500 119244.000000
10090 14656 1 0.16500 119244.000000
10090 14888 1 0.16500 119244.000000
10091 14658 1 0.16500 119244.000000
10091 15701 1 0.16500 119244.000000
10092 11506 1 0.16500 119244.000000
10092 14658 1 0.16500 119244.000000
10093 14659 1 0.16500 119244.000000
10093 16099 1 0.16500 119244.000000
10094 14659 1 0.16500 119244.000000
10094 14697 1 0.16500 119244.000000
10095 14660 1 0.16500 119244.000000
10095 15818 1 0.16500 119244.000000
10096 14660 1 0.16500 119244.000000
10096 15844 1 0.16500 119244.000000
10097 14661 1 0.16500 119244.000000
10097 14868 1 0.16500 119244.000000
10098 14666 1 0.16500 119244.000000
10098 15940 1 0.16500 119244.000000
10099 14666 1 0.16500 119244.000000
10099 15299 1 0.16500 119244.000000
10100 14666 1 0.16500 119244.000000
10100 15343 1 0.16500 119244.000000
10101 14667 1 0.16500 119244.000000
10101 16105 1 0.16500 119244.000000
10102 14668 1 0.16500 119244.000000
10102 16062 1 0.16500 119244.000000
10103 14668 1 0.16500 119244.000000
10103 16022 1 0.16500 119244.000000
10104 24042 1 0.16500 119244.000000
10104 24126 1 0.16500 119244.000000
10105 15332 1 0.16500 119244.000000
10105 21057 1 0.16500 119244.000000
10106 14670 1 0.16500 119244.000000
10106 16086 1 0.16500 119244.000000
10107 14671 1 0.16500 119244.000000
10107 16059 1 0.16500 119244.000000
10108 14672 1 0.16500 119244.000000
10108 15274 1 0.16500 119244.000000
10109 14672 1 0.16500 119244.000000
10109 15637 1 0.16500 119244.000000
10110 14673 1 0.16500 119244.000000
10110 14692 1 0.16500 119244.000000
10111 14673 1 0.16500 119244.000000
10111 15253 1 0.16500 119244.000000
10112 14674 1 0.16500 119244.000000
10112 14772 1 0.16500 119244.000000
10113 14674 1 0.16500 119244.000000
10113 15576 1 0.16500 119244.000000
10114 14675 1 0.16500 119244.000000
10114 14694 1 0.16500 119244.000000
10115 14676 1 0.16500 119244.000000
10115 16094 1 0.16500 119244.000000
10116 14676 1 0.16500 119244.000000
10116 14726 1 0.16500 119244.000000
10117 14677 1 0.16500 119244.000000
10117 15950 1 0.16500 119244.000000
10118 14677 1 0.16500 119244.000000
10118 14693 1 0.16500 119244.000000
10119 13707 1 0.16500 119244.000000
10119 15779 1 0.16500 119244.000000
10120 14679 1 0.16500 119244.000000
10120 14719 1 0.16500 119244.000000
10121 15113 1 0.16500 119244.000000
10121 24048 1 0.16500 119244.000000
10122 14681 1 0.16500 119244.000000
10122 15228 1 0.16500 119244.000000
10123 14682 1 0.16500 119244.000000
10123 15172 1 0.16500 119244.000000
10124 24051 1 0.16500 119244.000000
10124 24709 1 0.16500 119244.000000
10125 14684 1 0.16500 119244.000000
10125 14925 1 0.16500 119244.000000
10126 14684 1 0.16500 119244.000000
10126 15231 1 0.16500 119244.000000
10127 14685 1 0.16500 119244.000000
10127 16015 1 0.16500 119244.000000
10128 14686 1 0.16500 119244.000000
10128 15584 1 0.16500 119244.000000
10129 14688 1 0.16500 119244.000000
10129 14726 1 0.16500 119244.000000
10130 14688 1 0.16500 119244.000000
10130 15582 1 0.16500 119244.000000
10131 14689 1 0.16500 119244.000000
10131 15116 1 0.16500 119244.000000
10132 14690 1 0.16500 119244.000000
10132 15232 1 0.16500 119244.000000
10133 14690 1 0.16500 119244.000000
10133 14824 1 0.16500 119244.000000
10134 13832 1 0.16500 119244.000000
10134 14690 1 0.16500 119244.000000
10135 14690 1 0.16500 119244.000000
10135 14840 1 0.16500 119244.000000
10136 14691 1 0.16500 119244.000000
10136 15676 1 0.16500 119244.000000
10137 14692 1 0.16500 119244.000000
10137 14812 1 0.16500 119244.000000
10138 14693 1 0.16500 119244.000000
10138 15478 1 0.16500 119244.000000
10139 14695 1 0.16500 119244.000000
10139 24228 1 0.16500 119244.000000
10140 18219 1 0.16500 119244.000000
10140 24054 1 0.16500 119244.000000
10141 15562 1 0.16500 119244.000000
10141 24057 1 0.16500 119244.000000
10142 14698 1 0.16500 119244.000000
10142 15112 1 0.16500 119244.000000
10143 15725 1 0.16500 119244.000000
10143 17869 1 0.16500 119244.000000
10144 15715 1 0.16500 119244.000000
10144 24060 1 0.16500 119244.000000
10145 14699 1 0.16500 119244.000000
10145 15402 1 0.16500 119244.000000
10146 14699 1 0.16500 119244.000000
10146 24384 1 0.16500 119244.000000
10147 14699 1 0.16500 119244.000000
10147 15106 1 0.16500 119244.000000
10148 24063 1 0.16500 119244.000000
10148 24621 1 0.16500 119244.000000
10149 24063 1 0.16500 119244.000000
10149 24156 1 0.16500 119244.000000
10150 14995 1 0.16500 119244.000000
10150 15485 1 0.16500 119244.000000
10151 14701 1 0.16500 119244.000000
10151 15485 1 0.16500 119244.000000
10152 14702 1 0.16500 119244.000000
10152 16164 1 0.16500 119244.000000
10153 14704 1 0.16500 119244.000000
10153 14910 1 0.16500 119244.000000
10154 14704 1 0.16500 119244.000000
10154 15255 1 0.16500 119244.000000
10155 14705 1 0.16500 119244.000000
10155 15164 1 0.16500 119244.000000
10156 12515 1 0.16500 119244.000000
10156 16074 1 0.16500 119244.000000
10157 14706 1 0.16500 119244.000000
10157 16184 1 0.16500 119244.000000
10158 14707 1 0.16500 119244.000000
10158 24561 1 0.16500 119244.000000
10159 14708 1 0.16500 119244.000000
10159 24123 1 0.16500 119244.000000
10160 14709 1 0.16500 119244.000000
10160 15814 1 0.16500 119244.000000
10161 14711 1 0.16500 119244.000000
10161 15341 1 0.16500 119244.000000
10162 14711 1 0.16500 119244.000000
10162 14849 1 0.16500 119244.000000
10163 14712 1 0.16500 119244.000000
10163 15684 1 0.16500 119244.000000
10164 14712 1 0.16500 119244.000000
10164 14875 1 0.16500 119244.000000
10165 24069 1 0.16500 119244.000000
10165 24689 1 0.16500 119244.000000
10166 14714 1 0.16500 119244.000000
10166 15003 1 0.16500 119244.000000
10167 14715 1 0.16500 119244.000000
10167 14921 1 0.16500 119244.000000
10168 14716 1 0.16500 119244.000000
10168 16176 1 0.16500 119244.000000
10169 14716 1 0.16500 119244.000000
10169 15681 1 0.16500 119244.000000
10170 14718 1 0.16500 119244.000000
10170 15876 1 0.16500 119244.000000
10171 14719 1 0.16500 119244.000000
10171 15024 1 0.16500 119244.000000
10172 14720 1 0.16500 119244.000000
10172 15968 1 0.16500 119244.000000
10173 14720 1 0.16500 119244.000000
10173 15064 1 0.16500 119244.000000
10174 14721 1 0.16500 119244.000000
10174 16180 1 0.16500 119244.000000
10175 14722 1 0.16500 119244.000000
10175 15179 1 0.16500 119244.000000
10176 14722 1 0.16500 119244.000000
10176 14817 1 0.16500 119244.000000
10177 14723 1 0.16500 119244.000000
10177 15712 1 0.16500 119244.000000
10178 14724 1 0.16500 119244.000000
10178 15392 1 0.16500 119244.000000
10179 14724 1 0.16500 119244.000000
10179 15179 1 0.16500 119244.000000
10180 14724 1 0.16500 119244.000000
10180 16177 1 0.16500 119244.000000
10181 14726 1 0.16500 119244.000000
10181 14887 1 0.16500 119244.000000
10182 14726 1 0.16500 119244.000000
10182 15720 1 0.16500 119244.000000
10183 14727 1 0.16500 119244.000000
10183 16176 1 0.16500 119244.000000
10184 14727 1 0.16500 119244.000000
10184 15430 1 0.16500 119244.000000
10185 15739 1 0.16500 119244.000000
10185 24072 1 0.16500 119244.000000
10186 14728 1 0.16500 119244.000000
10186 15172 1 0.16500 119244.000000
10187 14729 1 0.16500 119244.000000
10187 15670 1 0.16500 119244.000000
10188 14729 1 0.16500 119244.000000
10188 15105 1 0.16500 119244.000000
10189 14731 1 0.16500 119244.000000
10189 15328 1 0.16500 119244.000000
10190 14732 1 0.16500 119244.000000
10190 15791 1 0.16500 119244.000000
10191 14732 1 0.16500 119244.000000
10191 15885 1 0.16500 119244.000000
10192 14733 1 0.16500 119244.000000
10192 15387 1 0.16500 119244.000000
10193 13258 1 0.16500 119244.000000
10193 14733 1 0.16500 119244.000000
10194 14734 1 0.16500 119244.000000
10194 15840 1 0.16500 119244.000000
10195 15840 1 0.16500 119244.000000
10195 20013 1 0.16500 119244.000000
10196 14735 1 0.16500 119244.000000
10196 16191 1 0.16500 119244.000000
10197 14735 1 0.16500 119244.000000
10197 24081 1 0.16500 119244.000000
10198 14736 1 0.16500 119244.000000
10198 15894 1 0.16500 119244.000000
10199 15734 1 0.16500 119244.000000
10199 24075 1 0.16500 119244.000000
10200 14737 1 0.16500 119244.000000
10200 15333 1 0.16500 119244.000000
10201 14738 1 0.16500 119244.000000
10201 14877 1 0.16500 119244.000000
10202 14738 1 0.16500 119244.000000
10202 16206 1 0.16500 119244.000000
10203 14739 1 0.16500 119244.000000
10203 14892 1 0.16500 119244.000000
10204 14740 1 0.16500 119244.000000
10204 15651 1 0.16500 119244.000000
10205 14741 1 0.16500 119244.000000
10205 15589 1 0.16500 119244.000000
10206 11813 1 0.16500 119244.000000
10206 14743 1 0.16500 119244.000000
10207 14743 1 0.16500 119244.000000
10207 14995 1 0.16500 119244.000000
10208 14743 1 0.16500 119244.000000
10208 15698 1 0.16500 119244.000000
10209 14744 1 0.16500 119244.000000
10209 15411 1 0.16500 119244.000000
10210 14744 1 0.16500 119244.000000
10210 15760 1 0.16500 119244.000000
10211 14745 1 0.16500 119244.000000
10211 15476 1 0.16500 119244.000000
10212 14745 1 0.16500 119244.000000
10212 15416 1 0.16500 119244.000000
10213 24078 1 0.16500 119244.000000
10213 24360 1 0.16500 119244.000000
10214 14746 1 0.16500 119244.000000
10214 14901 1 0.16500 119244.000000
10215 14746 1 0.16500 119244.000000
10215 16076 1 0.16500 119244.000000
10216 14747 1 0.16500 119244.000000
10216 15853 1 0.16500 119244.000000
10217 14748 1 0.16500 119244.000000
10217 15545 1 0.16500 119244.000000
10218 14749 1 0.16500 119244.000000
10218 15222 1 0.16500 119244.000000
10219 14749 1 0.16500 119244.000000
10219 15554 1 0.16500 119244.000000
10220 14750 1 0.16500 119244.000000
10220 14973 1 0.16500 119244.000000
10221 14750 1 0.16500 119244.000000
10221 24129 1 0.16500 119244.000000
10222 14750 1 0.16500 119244.000000
10222 24759 1 0.16500 119244.000000
10223 14751 1 0.16500 119244.000000
10223 15573 1 0.16500 119244.000000
10224 14752 1 0.16500 119244.000000
10224 15295 1 0.16500 119244.000000
10225 14753 1 0.16500 119244.000000
10225 15990 1 0.16500 119244.000000
10226 14753 1 0.16500 119244.000000
10226 16187 1 0.16500 119244.000000
10227 14753 1 0.16500 119244.000000
10227 15790 1 0.16500 119244.000000
10228 14754 1 0.16500 119244.000000
10228 15858 1 0.16500 119244.000000
10229 16208 1 0.16500 119244.000000
10229 24081 1 0.16500 119244.000000
10230 15771 1 0.16500 119244.000000
10230 24084 1 0.16500 119244.000000
10231 14755 1 0.16500 119244.000000
10231 15344 1 0.16500 119244.000000
10232 14756 1 0.16500 119244.000000
10232 14911 1 0.16500 119244.000000
10233 14756 1 0.16500 119244.000000
10233 15052 1 0.16500 119244.000000
10234 14757 1 0.16500 119244.000000
10234 16096 1 0.16500 119244.000000
10235 14757 1 0.16500 119244.000000
10235 15920 1 0.16500 119244.000000
10236 14758 1 0.16500 119244.000000
10236 15731 1 0.16500 119244.000000
10237 14758 1 0.16500 119244.000000
10237 15304 1 0.16500 119244.000000
10238 22185 1 0.16500 119244.000000
10238 24087 1 0.16500 119244.000000
10239 18741 1 0.16500 119244.000000
10239 24087 1 0.16500 119244.000000
10240 14760 1 0.16500 119244.000000
10240 15443 1 0.16500 119244.000000
10241 14760 1 0.16500 119244.000000
10241 15423 1 0.16500 119244.000000
10242 14761 1 0.16500 119244.000000
10242 15563 1 0.16500 119244.000000
10243 14761 1 0.16500 119244.000000
10243 15043 1 0.16500 119244.000000
10244 14762 1 0.16500 119244.000000
10244 16209 1 0.16500 119244.000000
10245 14764 1 0.16500 119244.000000
10245 16097 1 0.16500 119244.000000
10246 14765 1 0.16500 119244.000000
10246 15184 1 0.16500 119244.000000
10247 14766 1 0.16500 119244.000000
10247 15236 1 0.16500 119244.000000
10248 13353 1 0.16500 119244.000000
10248 14767 1 0.16500 119244.000000
10249 14767 1 0.16500 119244.000000
10249 15897 1 0.16500 119244.000000
10250 14768 1 0.16500 119244.000000
10250 14907 1 0.16500 119244.000000
10251 14769 1 0.16500 119244.000000
10251 15093 1 0.16500 119244.000000
10252 14769 1 0.16500 119244.000000
10252 15043 1 0.16500 119244.000000
10253 14770 1 0.16500 119244.000000
10253 14836 1 0.16500 119244.000000
10254 14770 1 0.16500 119244.000000
10254 14891 1 0.16500 119244.000000
10255 14772 1 0.16500 119244.000000
10255 16165 1 0.16500 119244.000000
10256 14773 1 0.16500 119244.000000
10256 16189 1 0.16500 119244.000000
10257 14773 1 0.16500 119244.000000
10257 15094 1 0.16500 119244.000000
10258 14775 1 0.16500 119244.000000
10258 16175 1 0.16500 119244.000000
10259 14404 1 0.16500 119244.000000
10259 15337 1 0.16500 119244.000000
10260 14777 1 0.16500 119244.000000
10260 15690 1 0.16500 119244.000000
10261 14777 1 0.16500 119244.000000
10261 16027 1 0.16500 119244.000000
10262 14778 1 0.16500 119244.000000
10262 15066 1 0.16500 119244.000000
10263 14779 1 0.16500 119244.000000
10263 14897 1 0.16500 119244.000000
10264 14779 1 0.16500 119244.000000
10264 15963 1 0.16500 119244.000000
10265 14780 1 0.16500 119244.000000
10265 14852 1 0.16500 119244.000000
10266 14492 1 0.16500 119244.000000
10266 14781 1 0.16500 119244.000000
10267 14781 1 0.16500 119244.000000
10267 15386 1 0.16500 119244.000000
10268 14782 1 0.16500 119244.000000
10268 15356 1 0.16500 119244.000000
10269 14782 1 0.16500 119244.000000
10269 15495 1 0.16500 119244.000000
10270 14784 1 0.16500 119244.000000
10270 24126 1 0.16500 119244.000000
10271 14784 1 0.16500 119244.000000
10271 14913 1 0.16500 119244.000000
10272 13723 1 0.16500 119244.000000
10272 16102 1 0.16500 119244.000000
10273 14785 1 0.16500 119244.000000
10273 15770 1 0.16500 119244.000000
10274 14788 1 0.16500 119244.000000
10274 16174 1 0.16500 119244.000000
10275 11282 1 0.16500 119244.000000
10275 15661 1 0.16500 119244.000000
10276 15128 1 0.16500 119244.000000
10276 24090 1 0.16500 119244.000000
10277 14790 1 0.16500 119244.000000
10277 15516 1 0.16500 119244.000000
10278 14790 1 0.16500 119244.000000
10278 14925 1 0.16500 119244.000000
10279 14791 1 0.16500 119244.000000
10279 15832 1 0.16500 119244.000000
10280 14791 1 0.16500 119244.000000
10280 16185 1 0.16500 119244.000000
10281 14792 1 0.16500 119244.000000
10281 14832 1 0.16500 119244.000000
10282 14794 1 0.16500 119244.000000
10282 15480 1 0.16500 119244.000000
10283 14794 1 0.16500 119244.000000
10283 14837 1 0.16500 119244.000000
10284 14795 1 0.16500 119244.000000
10284 15980 1 0.16500 119244.000000
10285 12396 1 0.16500 119244.000000
10285 15876 1 0.16500 119244.000000
10286 14797 1 0.16500 119244.000000
10286 24336 1 0.16500 119244.000000
10287 14799 1 0.16500 119244.000000
10287 16091 1 0.16500 119244.000000
10288 14800 1 0.16500 119244.000000
10288 15910 1 0.16500 119244.000000
10289 14801 1 0.16500 119244.000000
10289 14996 1 0.16500 119244.000000
10290 11745 1 0.16500 119244.000000
10290 12772 1 0.16500 119244.000000
10291 14802 1 0.16500 119244.000000
10291 14926 1 0.16500 119244.000000
10292 14805 1 0.16500 119244.000000
10292 16204 1 0.16500 119244.000000
10293 14806 1 0.16500 119244.000000
10293 14880 1 0.16500 119244.000000
10294 14806 1 0.16500 119244.000000
10294 15870 1 0.16500 119244.000000
10295 14807 1 0.16500 119244.000000
10295 15047 1 0.16500 119244.000000
10296 13747 1 0.16500 119244.000000
10296 24099 1 0.16500 119244.000000
10297 14812 1 0.16500 119244.000000
10297 16211 1 0.16500 119244.000000
10298 14812 1 0.16500 119244.000000
10298 16185 1 0.16500 119244.000000
10299 14814 1 0.16500 119244.000000
10299 16007 1 0.16500 119244.000000
10300 14818 1 0.16500 119244.000000
10300 15401 1 0.16500 119244.000000
10301 14818 1 0.16500 119244.000000
10301 15688 1 0.16500 119244.000000
10302 15222 1 0.16500 119244.000000
10302 15401 1 0.16500 119244.000000
10303 14819 1 0.16500 119244.000000
10303 15759 1 0.16500 119244.000000
10304 14820 1 0.16500 119244.000000
10304 15036 1 0.16500 119244.000000
10305 14821 1 0.16500 119244.000000
10305 15705 1 0.16500 119244.000000
10306 15779 1 0.16500 119244.000000
10306 24159 1 0.16500 119244.000000
10307 17925 1 0.16500 119244.000000
10307 24159 1 0.16500 119244.000000
10308 14823 1 0.16500 119244.000000
10308 15737 1 0.16500 119244.000000
10309 14824 1 0.16500 119244.000000
10309 16185 1 0.16500 119244.000000
10310 14824 1 0.16500 119244.000000
10310 15832 1 0.16500 119244.000000
10311 14825 1 0.16500 119244.000000
10311 14920 1 0.16500 119244.000000
10312 14825 1 0.16500 119244.000000
10312 24210 1 0.16500 119244.000000
10313 14826 1 0.16500 119244.000000
10313 15754 1 0.16500 119244.000000
10314 15065 1 0.16500 119244.000000
10314 17939 1 0.16500 119244.000000
10315 14018 1 0.16500 119244.000000
10315 14827 1 0.16500 119244.000000
10316 14827 1 0.16500 119244.000000
10316 15067 1 0.16500 119244.000000
10317 14828 1 0.16500 119244.000000
10317 16151 1 0.16500 119244.000000
10318 14830 1 0.16500 119244.000000
10318 15706 1 0.16500 119244.000000
10319 14830 1 0.16500 119244.000000
10319 15692 1 0.16500 119244.000000
10320 14830 1 0.16500 119244.000000
10320 15539 1 0.16500 119244.000000
10321 14831 1 0.16500 119244.000000
10321 15448 1 0.16500 119244.000000
10322 14831 1 0.16500 119244.000000
10322 15223 1 0.16500 119244.000000
10323 14832 1 0.16500 119244.000000
10323 15098 1 0.16500 119244.000000
10324 14835 1 0.16500 119244.000000
10324 15331 1 0.16500 119244.000000
10325 14836 1 0.16500 119244.000000
10325 15215 1 0.16500 119244.000000
10326 14836 1 0.16500 119244.000000
10326 15264 1 0.16500 119244.000000
10327 14837 1 0.16500 119244.000000
10327 15288 1 0.16500 119244.000000
10328 14838 1 0.16500 119244.000000
10328 15141 1 0.16500 119244.000000
10329 24108 1 0.16500 119244.000000
10329 24516 1 0.16500 119244.000000
10330 15902 1 0.16500 119244.000000
10330 24111 1 0.16500 119244.000000
10331 14839 1 0.16500 119244.000000
10331 15004 1 0.16500 119244.000000
10332 12099 1 0.16500 119244.000000
10332 14839 1 0.16500 119244.000000
10333 14841 1 0.16500 119244.000000
10333 15614 1 0.16500 119244.000000
10334 14842 1 0.16500 119244.000000
10334 15511 1 0.16500 119244.000000
10335 14842 1 0.16500 119244.000000
10335 14893 1 0.16500 119244.000000
10336 14844 1 0.16500 119244.000000
10336 15154 1 0.16500 119244.000000
10337 14845 1 0.16500 119244.000000
10337 15531 1 0.16500 119244.000000
10338 14845 1 0.16500 119244.000000
10338 15686 1 0.16500 119244.000000
10339 15376 1 0.16500 119244.000000
10339 15798 1 0.16500 119244.000000
10340 14847 1 0.16500 119244.000000
10340 15376 1 0.16500 119244.000000
10341 14848 1 0.16500 119244.000000
10341 15228 1 0.16500 119244.000000
10342 14849 1 0.16500 119244.000000
10342 15114 1 0.16500 119244.000000
10343 14849 1 0.16500 119244.000000
10343 15758 1 0.16500 119244.000000
10344 14850 1 0.16500 119244.000000
10344 16212 1 0.16500 119244.000000
10345 14850 1 0.16500 119244.000000
10345 14928 1 0.16500 119244.000000
10346 14851 1 0.16500 119244.000000
10346 15696 1 0.16500 119244.000000
10347 14852 1 0.16500 119244.000000
10347 16135 1 0.16500 119244.000000
10348 14853 1 0.16500 119244.000000
10348 15555 1 0.16500 119244.000000
10349 14854 1 0.16500 119244.000000
10349 15414 1 0.16500 119244.000000
10350 14855 1 0.16500 119244.000000
10350 16190 1 0.16500 119244.000000
10351 14857 1 0.16500 119244.000000
10351 16027 1 0.16500 119244.000000
10352 14857 1 0.16500 119244.000000
10352 15192 1 0.16500 119244.000000
10353 14857 1 0.16500 119244.000000
10353 16101 1 0.16500 119244.000000
10354 14858 1 0.16500 119244.000000
10354 15801 1 0.16500 119244.000000
10355 14859 1 0.16500 119244.000000
10355 24714 1 0.16500 119244.000000
10356 16098 1 0.16500 119244.000000
10356 21741 1 0.16500 119244.000000
10357 15786 1 0.16500 119244.000000
10357 24123 1 0.16500 119244.000000
10358 14862 1 0.16500 119244.000000
10358 14918 1 0.16500 119244.000000
10359 14862 1 0.16500 119244.000000
10359 16041 1 0.16500 119244.000000
10360 14864 1 0.16500 119244.000000
10360 16202 1 0.16500 119244.000000
10361 14864 1 0.16500 119244.000000
10361 15123 1 0.16500 119244.000000
10362 14864 1 0.16500 119244.000000
10362 15265 1 0.16500 119244.000000
10363 14865 1 0.16500 119244.000000
10363 16005 1 0.16500 119244.000000
10364 14865 1 0.16500 119244.000000
10364 15693 1 0.16500 119244.000000
10365 14865 1 0.16500 119244.000000
10365 15581 1 0.16500 119244.000000
10366 14866 1 0.16500 119244.000000
10366 15891 1 0.16500 119244.000000
10367 14866 1 0.16500 119244.000000
10367 15596 1 0.16500 119244.000000
10368 14867 1 0.16500 119244.000000
10368 16113 1 0.16500 119244.000000
10369 14867 1 0.16500 119244.000000
10369 15186 1 0.16500 119244.000000
10370 13599 1 0.16500 119244.000000
10370 14868 1 0.16500 119244.000000
10371 14868 1 0.16500 119244.000000
10371 24594 1 0.16500 119244.000000
10372 14869 1 0.16500 119244.000000
10372 15689 1 0.16500 119244.000000
10373 14869 1 0.16500 119244.000000
10373 15022 1 0.16500 119244.000000
10374 14869 1 0.16500 119244.000000
10374 16136 1 0.16500 119244.000000
10375 14869 1 0.16500 119244.000000
10375 16110 1 0.16500 119244.000000
10376 14872 1 0.16500 119244.000000
10376 15498 1 0.16500 119244.000000
10377 14873 1 0.16500 119244.000000
10377 16036 1 0.16500 119244.000000
10378 14874 1 0.16500 119244.000000
10378 15776 1 0.16500 119244.000000
10379 14874 1 0.16500 119244.000000
10379 15811 1 0.16500 119244.000000
10380 14874 1 0.16500 119244.000000
10380 15048 1 0.16500 119244.000000
10381 14875 1 0.16500 119244.000000
10381 15417 1 0.16500 119244.000000
10382 14875 1 0.16500 119244.000000
10382 15095 1 0.16500 119244.000000
10383 14876 1 0.16500 119244.000000
10383 14961 1 0.16500 119244.000000
10384 14877 1 0.16500 119244.000000
10384 15174 1 0.16500 119244.000000
10385 14878 1 0.16500 119244.000000
10385 24516 1 0.16500 119244.000000
10386 14878 1 0.16500 119244.000000
10386 16039 1 0.16500 119244.000000
10387 14879 1 0.16500 119244.000000
10387 15745 1 0.16500 119244.000000
10388 14879 1 0.16500 119244.000000
10388 15581 1 0.16500 119244.000000
10389 14885 1 0.16500 119244.000000
10389 15778 1 0.16500 119244.000000
10390 14885 1 0.16500 119244.000000
10390 15438 1 0.16500 119244.000000
10391 14889 1 0.16500 119244.000000
10391 16177 1 0.16500 119244.000000
10392 14890 1 0.16500 119244.000000
10392 15369 1 0.16500 119244.000000
10393 14890 1 0.16500 119244.000000
10393 15885 1 0.16500 119244.000000
10394 14890 1 0.16500 119244.000000
10394 15967 1 0.16500 119244.000000
10395 14892 1 0.16500 119244.000000
10395 15605 1 0.16500 119244.000000
10396 14895 1 0.16500 119244.000000
10396 15233 1 0.16500 119244.000000
10397 16987 1 0.16500 119244.000000
10397 17995 1 0.16500 119244.000000
10398 14896 1 0.16500 119244.000000
10398 15017 1 0.16500 119244.000000
10399 14898 1 0.16500 119244.000000
10399 15305 1 0.16500 119244.000000
10400 14899 1 0.16500 119244.000000
10400 15323 1 0.16500 119244.000000
10401 13251 1 0.16500 119244.000000
10401 15794 1 0.16500 119244.000000
10402 14901 1 0.16500 119244.000000
10402 16208 1 0.16500 119244.000000
10403 14902 1 0.16500 119244.000000
10403 15464 1 0.16500 119244.000000
10404 14902 1 0.16500 119244.000000
10404 15335 1 0.16500 119244.000000
10405 14903 1 0.16500 119244.000000
10405 15381 1 0.16500 119244.000000
10406 13774 1 0.16500 119244.000000
10406 14903 1 0.16500 119244.000000
10407 13771 1 0.16500 119244.000000
10407 14978 1 0.16500 119244.000000
10408 14905 1 0.16500 119244.000000
10408 14915 1 0.16500 119244.000000
10409 14906 1 0.16500 119244.000000
10409 18121 1 0.16500 119244.000000
10410 14907 1 0.16500 119244.000000
10410 14910 1 0.16500 119244.000000
10411 14908 1 0.16500 119244.000000
10411 15828 1 0.16500 119244.000000
10412 14909 1 0.16500 119244.000000
10412 15224 1 0.16500 119244.000000
10413 24132 1 0.16500 119244.000000
10413 24561 1 0.16500 119244.000000
10414 13398 1 0.16500 119244.000000
10414 24132 1 0.16500 119244.000000
10415 14910 1 0.16500 119244.000000
10415 15884 1 0.16500 119244.000000
10416 14912 1 0.16500 119244.000000
10416 15452 1 0.16500 119244.000000
10417 14912 1 0.16500 119244.000000
10417 15160 1 0.16500 119244.000000
10418 14913 1 0.16500 119244.000000
10418 15187 1 0.16500 119244.000000
10419 14915 1 0.16500 119244.000000
10419 16023 1 0.16500 119244.000000
10420 14915 1 0.16500 119244.000000
10420 16007 1 0.16500 119244.000000
10421 14916 1 0.16500 119244.000000
10421 14936 1 0.16500 119244.000000
10422 11464 1 0.16500 119244.000000
10422 15777 1 0.16500 119244.000000
10423 14920 1 0.16500 119244.000000
10423 15196 1 0.16500 119244.000000
10424 14922 1 0.16500 119244.000000
10424 15877 1 0.16500 119244.000000
10425 14923 1 0.16500 119244.000000
10425 24321 1 0.16500 119244.000000
10426 14924 1 0.16500 119244.000000
10426 15506 1 0.16500 119244.000000
10427 14926 1 0.16500 119244.000000
10427 15641 1 0.16500 119244.000000
10428 14927 1 0.16500 119244.000000
10428 14992 1 0.16500 119244.000000
10429 14927 1 0.16500 119244.000000
10429 15821 1 0.16500 119244.000000
10430 14928 1 0.16500 119244.000000
10430 15100 1 0.16500 119244.000000
10431 14928 1 0.16500 119244.000000
10431 15175 1 0.16500 119244.000000
10432 14929 1 0.16500 119244.000000
10432 15111 1 0.16500 119244.000000
10433 14933 1 0.16500 119244.000000
10433 15427 1 0.16500 119244.000000
10434 14935 1 0.16500 119244.000000
10434 15633 1 0.16500 119244.000000
10435 15670 1 0.16500 119244.000000
10435 24138 1 0.16500 119244.000000
10436 16055 1 0.16500 119244.000000
10436 24138 1 0.16500 119244.000000
10437 14939 1 0.16500 119244.000000
10437 15421 1 0.16500 119244.000000
10438 14939 1 0.16500 119244.000000
10438 14959 1 0.16500 119244.000000
10439 14939 1 0.16500 119244.000000
10439 24381 1 0.16500 119244.000000
10440 14939 1 0.16500 119244.000000
10440 18205 1 0.16500 119244.000000
10441 24141 1 0.16500 119244.000000
10441 24315 1 0.16500 119244.000000
10442 15703 1 0.16500 119244.000000
10442 24141 1 0.16500 119244.000000
10443 14940 1 0.16500 119244.000000
10443 15524 1 0.16500 119244.000000
10444 14941 1 0.16500 119244.000000
10444 15614 1 0.16500 119244.000000
10445 14941 1 0.16500 119244.000000
10445 15892 1 0.16500 119244.000000
10446 14942 1 0.16500 119244.000000
10446 16071 1 0.16500 119244.000000
10447 14943 1 0.16500 119244.000000
10447 15019 1 0.16500 119244.000000
10448 14944 1 0.16500 119244.000000
10448 15329 1 0.16500 119244.000000
10449 14945 1 0.16500 119244.000000
10449 16166 1 0.16500 119244.000000
10450 14945 1 0.16500 119244.000000
10450 24294 1 0.16500 119244.000000
10451 14946 1 0.16500 119244.000000
10451 15000 1 0.16500 119244.000000
10452 14946 1 0.16500 119244.000000
10452 15727 1 0.16500 119244.000000
10453 14946 1 0.16500 119244.000000
10453 15502 1 0.16500 119244.000000
10454 14948 1 0.16500 119244.000000
10454 16083 1 0.16500 119244.000000
10455 14948 1 0.16500 119244.000000
10455 16093 1 0.16500 119244.000000
10456 14950 1 0.16500 119244.000000
10456 15545 1 0.16500 119244.000000
10457 14951 1 0.16500 119244.000000
10457 24411 1 0.16500 119244.000000
10458 14952 1 0.16500 119244.000000
10458 15702 1 0.16500 119244.000000
10459 14044 1 0.16500 119244.000000
10459 15424 1 0.16500 119244.000000
10460 14953 1 0.16500 119244.000000
10460 15623 1 0.16500 119244.000000
10461 15307 1 0.16500 119244.000000
10461 24144 1 0.16500 119244.000000
10462 15715 1 0.16500 119244.000000
10462 24144 1 0.16500 119244.000000
10463 24147 1 0.16500 119244.000000
10463 24684 1 0.16500 119244.000000
10464 14955 1 0.16500 119244.000000
10464 15439 1 0.16500 119244.000000
10465 14957 1 0.16500 119244.000000
10465 16152 1 0.16500 119244.000000
10466 14958 1 0.16500 119244.000000
10466 15672 1 0.16500 119244.000000
10467 14401 1 0.16500 119244.000000
10467 14958 1 0.16500 119244.000000
10468 12140 1 0.16500 119244.000000
10468 14959 1 0.16500 119244.000000
10469 14960 1 0.16500 119244.000000
10469 15639 1 0.16500 119244.000000
10470 14962 1 0.16500 119244.000000
10470 15391 1 0.16500 119244.000000
10471 12733 1 0.16500 119244.000000
10471 14963 1 0.16500 119244.000000
10472 14963 1 0.16500 119244.000000
10472 15336 1 0.16500 119244.000000
10473 14964 1 0.16500 119244.000000
10473 15742 1 0.16500 119244.000000
10474 14964 1 0.16500 119244.000000
10474 15293 1 0.16500 119244.000000
10475 15553 1 0.16500 119244.000000
10475 24150 1 0.16500 119244.000000
10476 14965 1 0.16500 119244.000000
10476 15159 1 0.16500 119244.000000
10477 14967 1 0.16500 119244.000000
10477 15140 1 0.16500 119244.000000
10478 14969 1 0.16500 119244.000000
10478 15078 1 0.16500 119244.000000
10479 14970 1 0.16500 119244.000000
10479 15349 1 0.16500 119244.000000
10480 13116 1 0.16500 119244.000000
10480 14974 1 0.16500 119244.000000
10481 14974 1 0.16500 119244.000000
10481 15850 1 0.16500 119244.000000
10482 14975 1 0.16500 119244.000000
10482 15025 1 0.16500 119244.000000
10483 14976 1 0.16500 119244.000000
10483 15708 1 0.16500 119244.000000
10484 14977 1 0.16500 119244.000000
10484 15665 1 0.16500 119244.000000
10485 14978 1 0.16500 119244.000000
10485 15117 1 0.16500 119244.000000
10486 14979 1 0.16500 119244.000000
10486 15047 1 0.16500 119244.000000
10487 14981 1 0.16500 119244.000000
10487 15509 1 0.16500 119244.000000
10488 14981 1 0.16500 119244.000000
10488 24399 1 0.16500 119244.000000
10489 13750 1 0.16500 119244.000000
10489 14982 1 0.16500 119244.000000
10490 14982 1 0.16500 119244.000000
10490 15704 1 0.16500 119244.000000
10491 15368 1 0.16500 119244.000000
10491 24153 1 0.16500 119244.000000
10492 12233 1 0.16500 119244.000000
10492 24156 1 0.16500 119244.000000
10493 14984 1 0.16500 119244.000000
10493 15525 1 0.16500 119244.000000
10494 14987 1 0.16500 119244.000000
10494 15594 1 0.16500 119244.000000
10495 14988 1 0.16500 119244.000000
10495 15736 1 0.16500 119244.000000
10496 11780 1 0.16500 119244.000000
10496 14989 1 0.16500 119244.000000
10497 14990 1 0.16500 119244.000000
10497 16119 1 0.16500 119244.000000
10498 14991 1 0.16500 119244.000000
10498 15708 1 0.16500 119244.000000
10499 14992 1 0.16500 119244.000000
10499 15353 1 0.16500 119244.000000
10500 14993 1 0.16500 119244.000000
10500 24336 1 0.16500 119244.000000
10501 14995 1 0.16500 119244.000000
10501 15795 1 0.16500 119244.000000
10502 14999 1 0.16500 119244.000000
10502 15888 1 0.16500 119244.000000
10503 14999 1 0.16500 119244.000000
10503 16087 1 0.16500 119244.000000
10504 15001 1 0.16500 119244.000000
10504 15518 1 0.16500 119244.000000
10505 15002 1 0.16500 119244.000000
10505 15802 1 0.16500 119244.000000
10506 15002 1 0.16500 119244.000000
10506 15058 1 0.16500 119244.000000
10507 15003 1 0.16500 119244.000000
10507 15223 1 0.16500 119244.000000
10508 15005 1 0.16500 119244.000000
10508 15077 1 0.16500 119244.000000
10509 15007 1 0.16500 119244.000000
10509 16049 1 0.16500 119244.000000
10510 15007 1 0.16500 119244.000000
10510 16042 1 0.16500 119244.000000
10511 15007 1 0.16500 119244.000000
10511 15182 1 0.16500 119244.000000
10512 15009 1 0.16500 119244.000000
10512 15955 1 0.16500 119244.000000
10513 13398 1 0.16500 119244.000000
10513 24174 1 0.16500 119244.000000
10514 22941 1 0.16500 119244.000000
10514 24174 1 0.16500 119244.000000
10515 15011 1 0.16500 119244.000000
10515 24204 1 0.16500 119244.000000
10516 15011 1 0.16500 119244.000000
10516 15038 1 0.16500 119244.000000
10517 15012 1 0.16500 119244.000000
10517 15269 1 0.16500 119244.000000
10518 12360 1 0.16500 119244.000000
10518 13059 1 0.16500 119244.000000
10519 15014 1 0.16500 119244.000000
10519 15095 1 0.16500 119244.000000
10520 15015 1 0.16500 119244.000000
10520 15712 1 0.16500 119244.000000
10521 14377 1 0.16500 119244.000000
10521 15324 1 0.16500 119244.000000
10522 15017 1 0.16500 119244.000000
10522 15142 1 0.16500 119244.000000
10523 15017 1 0.16500 119244.000000
10523 15672 1 0.16500 119244.000000
10524 15019 1 0.16500 119244.000000
10524 15809 1 0.16500 119244.000000
10525 15019 1 0.16500 119244.000000
10525 15979 1 0.16500 119244.000000
10526 15020 1 0.16500 119244.000000
10526 15102 1 0.16500 119244.000000
10527 15022 1 0.16500 119244.000000
10527 15552 1 0.16500 119244.000000
10528 15023 1 0.16500 119244.000000
10528 15830 1 0.16500 119244.000000
10529 15025 1 0.16500 119244.000000
10529 15768 1 0.16500 119244.000000
10530 15026 1 0.16500 119244.000000
10530 15076 1 0.16500 119244.000000
10531 12395 1 0.16500 119244.000000
10531 15621 1 0.16500 119244.000000
10532 12395 1 0.16500 119244.000000
10532 15490 1 0.16500 119244.000000
10533 15029 1 0.16500 119244.000000
10533 15905 1 0.16500 119244.000000
10534 15030 1 0.16500 119244.000000
10534 15420 1 0.16500 119244.000000
10535 15030 1 0.16500 119244.000000
10535 15657 1 0.16500 119244.000000
10536 15031 1 0.16500 119244.000000
10536 24444 1 0.16500 119244.000000
10537 15032 1 0.16500 119244.000000
10537 16041 1 0.16500 119244.000000
10538 15033 1 0.16500 119244.000000
10538 15134 1 0.16500 119244.000000
10539 15034 1 0.16500 119244.000000
10539 15417 1 0.16500 119244.000000
10540 15035 1 0.16500 119244.000000
10540 15136 1 0.16500 119244.000000
10541 15036 1 0.16500 119244.000000
10541 15334 1 0.16500 119244.000000
10542 15036 1 0.16500 119244.000000
10542 15977 1 0.16500 119244.000000
10543 15037 1 0.16500 119244.000000
10543 15671 1 0.16500 119244.000000
10544 15038 1 0.16500 119244.000000
10544 24492 1 0.16500 119244.000000
10545 15039 1 0.16500 119244.000000
10545 24789 1 0.16500 119244.000000
10546 15040 1 0.16500 119244.000000
10546 15351 1 0.16500 119244.000000
10547 15040 1 0.16500 119244.000000
10547 15313 1 0.16500 119244.000000
10548 15041 1 0.16500 119244.000000
10548 16087 1 0.16500 119244.000000
10549 15307 1 0.16500 119244.000000
10549 18051 1 0.16500 119244.000000
10550 15042 1 0.16500 119244.000000
10550 24769 1 0.16500 119244.000000
10551 15042 1 0.16500 119244.000000
10551 24339 1 0.16500 119244.000000
10552 15042 1 0.16500 119244.000000
10552 15124 1 0.16500 119244.000000
10553 15044 1 0.16500 119244.000000
10553 15773 1 0.16500 119244.000000
10554 15045 1 0.16500 119244.000000
10554 16149 1 0.16500 119244.000000
10555 15045 1 0.16500 119244.000000
10555 24612 1 0.16500 119244.000000
10556 15046 1 0.16500 119244.000000
10556 15986 1 0.16500 119244.000000
10557 15046 1 0.16500 119244.000000
10557 15941 1 0.16500 119244.000000
10558 15046 1 0.16500 119244.000000
10558 15055 1 0.16500 119244.000000
10559 15048 1 0.16500 119244.000000
10559 16147 1 0.16500 119244.000000
10560 24183 1 0.16500 119244.000000
10560 24240 1 0.16500 119244.000000
10561 15807 1 0.16500 119244.000000
10561 24183 1 0.16500 119244.000000
10562 15049 1 0.16500 119244.000000
10562 15903 1 0.16500 119244.000000
10563 15049 1 0.16500 119244.000000
10563 15664 1 0.16500 119244.000000
10564 15049 1 0.16500 119244.000000
10564 15384 1 0.16500 119244.000000
10565 15050 1 0.16500 119244.000000
10565 15570 1 0.16500 119244.000000
10566 15051 1 0.16500 119244.000000
10566 15081 1 0.16500 119244.000000
10567 24186 1 0.16500 119244.000000
10567 24654 1 0.16500 119244.000000
10568 15052 1 0.16500 119244.000000
10568 15858 1 0.16500 119244.000000
10569 15053 1 0.16500 119244.000000
10569 24489 1 0.16500 119244.000000
10570 15053 1 0.16500 119244.000000
10570 15501 1 0.16500 119244.000000
10571 15054 1 0.16500 119244.000000
10571 15200 1 0.16500 119244.000000
10572 15905 1 0.16500 119244.000000
10572 24192 1 0.16500 119244.000000
10573 15057 1 0.16500 119244.000000
10573 16191 1 0.16500 119244.000000
10574 15058 1 0.16500 119244.000000
10574 15888 1 0.16500 119244.000000
10575 15059 1 0.16500 119244.000000
10575 15437 1 0.16500 119244.000000
10576 12608 1 0.16500 119244.000000
10576 15059 1 0.16500 119244.000000
10577 15059 1 0.16500 119244.000000
10577 15935 1 0.16500 119244.000000
10578 15061 1 0.16500 119244.000000
10578 15295 1 0.16500 119244.000000
10579 15063 1 0.16500 119244.000000
10579 16068 1 0.16500 119244.000000
10580 15063 1 0.16500 119244.000000
10580 15912 1 0.16500 119244.000000
10581 15482 1 0.16500 119244.000000
10581 24195 1 0.16500 119244.000000
10582 24195 1 0.16500 119244.000000
10582 24570 1 0.16500 119244.000000
10583 15065 1 0.16500 119244.000000
10583 15888 1 0.16500 119244.000000
10584 15066 1 0.16500 119244.000000
10584 15289 1 0.16500 119244.000000
10585 15066 1 0.16500 119244.000000
10585 15092 1 0.16500 119244.000000
10586 15067 1 0.16500 119244.000000
10586 15139 1 0.16500 119244.000000
10587 24198 1 0.16500 119244.000000
10587 24543 1 0.16500 119244.000000
10588 15068 1 0.16500 119244.000000
10588 15356 1 0.16500 119244.000000
10589 15071 1 0.16500 119244.000000
10589 15909 1 0.16500 119244.000000
10590 15072 1 0.16500 119244.000000
10590 16141 1 0.16500 119244.000000
10591 15090 1 0.16500 119244.000000
10591 24204 1 0.16500 119244.000000
10592 15590 1 0.16500 119244.000000
10592 24207 1 0.16500 119244.000000
10593 16112 1 0.16500 119244.000000
10593 24207 1 0.16500 119244.000000
10594 15074 1 0.16500 119244.000000
10594 15778 1 0.16500 119244.000000
10595 15075 1 0.16500 119244.000000
10595 15851 1 0.16500 119244.000000
10596 15076 1 0.16500 119244.000000
10596 16086 1 0.16500 119244.000000
10597 15077 1 0.16500 119244.000000
10597 15481 1 0.16500 119244.000000
10598 15078 1 0.16500 119244.000000
10598 15237 1 0.16500 119244.000000
10599 15079 1 0.16500 119244.000000
10599 15644 1 0.16500 119244.000000
10600 15080 1 0.16500 119244.000000
10600 16139 1 0.16500 119244.000000
10601 15080 1 0.16500 119244.000000
10601 16044 1 0.16500 119244.000000
10602 15083 1 0.16500 119244.000000
10602 16124 1 0.16500 119244.000000
10603 15084 1 0.16500 119244.000000
10603 24546 1 0.16500 119244.000000
10604 15084 1 0.16500 119244.000000
10604 15132 1 0.16500 119244.000000
10605 15085 1 0.16500 119244.000000
10605 15320 1 0.16500 119244.000000
10606 15086 1 0.16500 119244.000000
10606 16111 1 0.16500 119244.000000
10607 15703 1 0.16500 119244.000000
10607 24213 1 0.16500 119244.000000
10608 15089 1 0.16500 119244.000000
10608 15817 1 0.16500 119244.000000
10609 15089 1 0.16500 119244.000000
10609 15966 1 0.16500 119244.000000
10610 15090 1 0.16500 119244.000000
10610 15974 1 0.16500 119244.000000
10611 15090 1 0.16500 119244.000000
10611 24462 1 0.16500 119244.000000
10612 15092 1 0.16500 119244.000000
10612 15636 1 0.16500 119244.000000
10613 15092 1 0.16500 119244.000000
10613 15758 1 0.16500 119244.000000
10614 15094 1 0.16500 119244.000000
10614 16137 1 0.16500 119244.000000
10615 15096 1 0.16500 119244.000000
10615 15924 1 0.16500 119244.000000
10616 15098 1 0.16500 119244.000000
10616 15249 1 0.16500 119244.000000
10617 15099 1 0.16500 119244.000000
10617 15471 1 0.16500 119244.000000
10618 15099 1 0.16500 119244.000000
10618 15252 1 0.16500 119244.000000
10619 15100 1 0.16500 119244.000000
10619 15762 1 0.16500 119244.000000
10620 15103 1 0.16500 119244.000000
10620 15878 1 0.16500 119244.000000
10621 15103 1 0.16500 119244.000000
10621 15263 1 0.16500 119244.000000
10622 15104 1 0.16500 119244.000000
10622 15622 1 0.16500 119244.000000
10623 15105 1 0.16500 119244.000000
10623 15949 1 0.16500 119244.000000
10624 15105 1 0.16500 119244.000000
10624 16031 1 0.16500 119244.000000
10625 13147 1 0.16500 119244.000000
10625 15322 1 0.16500 119244.000000
10626 24225 1 0.16500 119244.000000
10626 24606 1 0.16500 119244.000000
10627 15106 1 0.16500 119244.000000
10627 15114 1 0.16500 119244.000000
10628 12577 1 0.16500 119244.000000
10628 15950 1 0.16500 119244.000000
10629 15107 1 0.16500 119244.000000
10629 15497 1 0.16500 119244.000000
10630 15107 1 0.16500 119244.000000
10630 15792 1 0.16500 119244.000000
10631 15108 1 0.16500 119244.000000
10631 15568 1 0.16500 119244.000000
10632 15111 1 0.16500 119244.000000
10632 24618 1 0.16500 119244.000000
10633 15112 1 0.16500 119244.000000
10633 15238 1 0.16500 119244.000000
10634 15114 1 0.16500 119244.000000
10634 15246 1 0.16500 119244.000000
10635 15116 1 0.16500 119244.000000
10635 15634 1 0.16500 119244.000000
10636 15116 1 0.16500 119244.000000
10636 15523 1 0.16500 119244.000000
10637 15118 1 0.16500 119244.000000
10637 15917 1 0.16500 119244.000000
10638 13781 1 0.16500 119244.000000
10638 15119 1 0.16500 119244.000000
10639 15120 1 0.16500 119244.000000
10639 16036 1 0.16500 119244.000000
10640 15120 1 0.16500 119244.000000
10640 15560 1 0.16500 119244.000000
10641 15120 1 0.16500 119244.000000
10641 15618 1 0.16500 119244.000000
10642 15120 1 0.16500 119244.000000
10642 15805 1 0.16500 119244.000000
10643 15121 1 0.16500 119244.000000
10643 15620 1 0.16500 119244.000000
10644 15122 1 0.16500 119244.000000
10644 15442 1 0.16500 119244.000000
10645 15125 1 0.16500 119244.000000
10645 15770 1 0.16500 119244.000000
10646 15125 1 0.16500 119244.000000
10646 15906 1 0.16500 119244.000000
10647 15105 1 0.16500 119244.000000
10647 15126 1 0.16500 119244.000000
10648 15127 1 0.16500 119244.000000
10648 15145 1 0.16500 119244.000000
10649 15128 1 0.16500 119244.000000
10649 19929 1 0.16500 119244.000000
10650 15129 1 0.16500 119244.000000
10650 15932 1 0.16500 119244.000000
10651 15130 1 0.16500 119244.000000
10651 16002 1 0.16500 119244.000000
10652 15130 1 0.16500 119244.000000
10652 15212 1 0.16500 119244.000000
10653 15131 1 0.16500 119244.000000
10653 15861 1 0.16500 119244.000000
10654 15132 1 0.16500 119244.000000
10654 15226 1 0.16500 119244.000000
10655 15133 1 0.16500 119244.000000
10655 15709 1 0.16500 119244.000000
10656 15133 1 0.16500 119244.000000
10656 15635 1 0.16500 119244.000000
10657 15133 1 0.16500 119244.000000
10657 15509 1 0.16500 119244.000000
10658 15134 1 0.16500 119244.000000
10658 15394 1 0.16500 119244.000000
10659 15137 1 0.16500 119244.000000
10659 15190 1 0.16500 119244.000000
10660 15138 1 0.16500 119244.000000
10660 15772 1 0.16500 119244.000000
10661 14874 1 0.16500 119244.000000
10661 15138 1 0.16500 119244.000000
10662 15139 1 0.16500 119244.000000
10662 15622 1 0.16500 119244.000000
10663 15140 1 0.16500 119244.000000
10663 15623 1 0.16500 119244.000000
10664 15141 1 0.16500 119244.000000
10664 15208 1 0.16500 119244.000000
10665 15142 1 0.16500 119244.000000
10665 15262 1 0.16500 119244.000000
10666 15144 1 0.16500 119244.000000
10666 15251 1 0.16500 119244.000000
10667 15146 1 0.16500 119244.000000
10667 15335 1 0.16500 119244.000000
10668 15148 1 0.16500 119244.000000
10668 15161 1 0.16500 119244.000000
10669 15150 1 0.16500 119244.000000
10669 15609 1 0.16500 119244.000000
10670 15150 1 0.16500 119244.000000
10670 24588 1 0.16500 119244.000000
10671 15150 1 0.16500 119244.000000
10671 24438 1 0.16500 119244.000000
10672 14635 1 0.16500 119244.000000
10672 15151 1 0.16500 119244.000000
10673 15156 1 0.16500 119244.000000
10673 15461 1 0.16500 119244.000000
10674 15157 1 0.16500 119244.000000
10674 24309 1 0.16500 119244.000000
10675 15158 1 0.16500 119244.000000
10675 15236 1 0.16500 119244.000000
10676 11893 1 0.16500 119244.000000
10676 15599 1 0.16500 119244.000000
10677 13887 1 0.16500 119244.000000
10677 15160 1 0.16500 119244.000000
10678 24237 1 0.16500 119244.000000
10678 24429 1 0.16500 119244.000000
10679 15730 1 0.16500 119244.000000
10679 24237 1 0.16500 119244.000000
10680 14395 1 0.16500 119244.000000
10680 16033 1 0.16500 119244.000000
10681 12608 1 0.16500 119244.000000
10681 15526 1 0.16500 119244.000000
10682 15164 1 0.16500 119244.000000
10682 15812 1 0.16500 119244.000000
10683 15165 1 0.16500 119244.000000
10683 15536 1 0.16500 119244.000000
10684 15166 1 0.16500 119244.000000
10684 15957 1 0.16500 119244.000000
10685 15734 1 0.16500 119244.000000
10685 24246 1 0.16500 119244.000000
10686 24246 1 0.16500 119244.000000
10686 24423 1 0.16500 119244.000000
10687 15168 1 0.16500 119244.000000
10687 15489 1 0.16500 119244.000000
10688 15169 1 0.16500 119244.000000
10688 16168 1 0.16500 119244.000000
10689 15169 1 0.16500 119244.000000
10689 16156 1 0.16500 119244.000000
10690 15169 1 0.16500 119244.000000
10690 15278 1 0.16500 119244.000000
10691 15170 1 0.16500 119244.000000
10691 15859 1 0.16500 119244.000000
10692 15171 1 0.16500 119244.000000
10692 15611 1 0.16500 119244.000000
10693 15171 1 0.16500 119244.000000
10693 15717 1 0.16500 119244.000000
10694 15597 1 0.16500 119244.000000
10694 18121 1 0.16500 119244.000000
10695 15173 1 0.16500 119244.000000
10695 16129 1 0.16500 119244.000000
10696 15174 1 0.16500 119244.000000
10696 15862 1 0.16500 119244.000000
10697 15178 1 0.16500 119244.000000
10697 15685 1 0.16500 119244.000000
10698 14722 1 0.16500 119244.000000
10698 15424 1 0.16500 119244.000000
10699 15181 1 0.16500 119244.000000
10699 16045 1 0.16500 119244.000000
10700 15181 1 0.16500 119244.000000
10700 15801 1 0.16500 119244.000000
10701 15377 1 0.16500 119244.000000
10701 18149 1 0.16500 119244.000000
10702 15184 1 0.16500 119244.000000
10702 15764 1 0.16500 119244.000000
10703 15190 1 0.16500 119244.000000
10703 16113 1 0.16500 119244.000000
10704 13237 1 0.16500 119244.000000
10704 15191 1 0.16500 119244.000000
10705 24252 1 0.16500 119244.000000
10705 24387 1 0.16500 119244.000000
10706 15193 1 0.16500 119244.000000
10706 15977 1 0.16500 119244.000000
10707 15194 1 0.16500 119244.000000
10707 15972 1 0.16500 119244.000000
10708 15194 1 0.16500 119244.000000
10708 15388 1 0.16500 119244.000000
10709 15195 1 0.16500 119244.000000
10709 16053 1 0.16500 119244.000000
10710 15197 1 0.16500 119244.000000
10710 15382 1 0.16500 119244.000000
10711 15197 1 0.16500 119244.000000
10711 24585 1 0.16500 119244.000000
10712 15199 1 0.16500 119244.000000
10712 15499 1 0.16500 119244.000000
10713 15199 1 0.16500 119244.000000
10713 16142 1 0.16500 119244.000000
10714 15201 1 0.16500 119244.000000
10714 15479 1 0.16500 119244.000000
10715 15201 1 0.16500 119244.000000
10715 15535 1 0.16500 119244.000000
10716 15203 1 0.16500 119244.000000
10716 15932 1 0.16500 119244.000000
10717 15204 1 0.16500 119244.000000
10717 15822 1 0.16500 119244.000000
10718 15205 1 0.16500 119244.000000
10718 15436 1 0.16500 119244.000000
10719 15207 1 0.16500 119244.000000
10719 15880 1 0.16500 119244.000000
10720 15208 1 0.16500 119244.000000
10720 15352 1 0.16500 119244.000000
10721 15209 1 0.16500 119244.000000
10721 15754 1 0.16500 119244.000000
10722 15214 1 0.16500 119244.000000
10722 15793 1 0.16500 119244.000000
10723 15214 1 0.16500 119244.000000
10723 15263 1 0.16500 119244.000000
10724 15218 1 0.16500 119244.000000
10724 15614 1 0.16500 119244.000000
10725 15218 1 0.16500 119244.000000
10725 15334 1 0.16500 119244.000000
10726 15220 1 0.16500 119244.000000
10726 15872 1 0.16500 119244.000000
10727 13810 1 0.16500 119244.000000
10727 15628 1 0.16500 119244.000000
10728 15221 1 0.16500 119244.000000
10728 15738 1 0.16500 119244.000000
10729 15224 1 0.16500 119244.000000
10729 15577 1 0.16500 119244.000000
10730 15226 1 0.16500 119244.000000
10730 15691 1 0.16500 119244.000000
10731 15227 1 0.16500 119244.000000
10731 15383 1 0.16500 119244.000000
10732 15228 1 0.16500 119244.000000
10732 15513 1 0.16500 119244.000000
10733 15229 1 0.16500 119244.000000
10733 16071 1 0.16500 119244.000000
10734 15229 1 0.16500 119244.000000
10734 16020 1 0.16500 119244.000000
10735 15230 1 0.16500 119244.000000
10735 15645 1 0.16500 119244.000000
10736 15591 1 0.16500 119244.000000
10736 24258 1 0.16500 119244.000000
10737 14190 1 0.16500 119244.000000
10737 15516 1 0.16500 119244.000000
10738 15231 1 0.16500 119244.000000
10738 15626 1 0.16500 119244.000000
10739 15232 1 0.16500 119244.000000
10739 15683 1 0.16500 119244.000000
10740 15235 1 0.16500 119244.000000
10740 15298 1 0.16500 119244.000000
10741 14958 1 0.16500 119244.000000
10741 15236 1 0.16500 119244.000000
10742 16111 1 0.16500 119244.000000
10742 24261 1 0.16500 119244.000000
10743 16153 1 0.16500 119244.000000
10743 24261 1 0.16500 119244.000000
10744 15579 1 0.16500 119244.000000
10744 24264 1 0.16500 119244.000000
10745 15238 1 0.16500 119244.000000
10745 15764 1 0.16500 119244.000000
10746 15238 1 0.16500 119244.000000
10746 15754 1 0.16500 119244.000000
10747 24267 1 0.16500 119244.000000
10747 24534 1 0.16500 119244.000000
10748 15239 1 0.16500 119244.000000
10748 16185 1 0.16500 119244.000000
10749 15240 1 0.16500 119244.000000
10749 15424 1 0.16500 119244.000000
10750 15241 1 0.16500 119244.000000
10750 15260 1 0.16500 119244.000000
10751 15244 1 0.16500 119244.000000
10751 15714 1 0.16500 119244.000000
10752 15247 1 0.16500 119244.000000
10752 15294 1 0.16500 119244.000000
10753 15248 1 0.16500 119244.000000
10753 15416 1 0.16500 119244.000000
10754 15248 1 0.16500 119244.000000
10754 15925 1 0.16500 119244.000000
10755 14097 1 0.16500 119244.000000
10755 15254 1 0.16500 119244.000000
10756 24273 1 0.16500 119244.000000
10756 24468 1 0.16500 119244.000000
10757 16145 1 0.16500 119244.000000
10757 24273 1 0.16500 119244.000000
10758 15666 1 0.16500 119244.000000
10758 24276 1 0.16500 119244.000000
10759 15257 1 0.16500 119244.000000
10759 24393 1 0.16500 119244.000000
10760 15259 1 0.16500 119244.000000
10760 15777 1 0.16500 119244.000000
10761 15260 1 0.16500 119244.000000
10761 15750 1 0.16500 119244.000000
10762 15261 1 0.16500 119244.000000
10762 15899 1 0.16500 119244.000000
10763 15263 1 0.16500 119244.000000
10763 15589 1 0.16500 119244.000000
10764 15267 1 0.16500 119244.000000
10764 24513 1 0.16500 119244.000000
10765 15267 1 0.16500 119244.000000
10765 15282 1 0.16500 119244.000000
10766 15267 1 0.16500 119244.000000
10766 24537 1 0.16500 119244.000000
10767 15268 1 0.16500 119244.000000
10767 15270 1 0.16500 119244.000000
10768 15269 1 0.16500 119244.000000
10768 15419 1 0.16500 119244.000000
10769 15270 1 0.16500 119244.000000
10769 15592 1 0.16500 119244.000000
10770 15272 1 0.16500 119244.000000
10770 15709 1 0.16500 119244.000000
10771 15273 1 0.16500 119244.000000
10771 15418 1 0.16500 119244.000000
10772 15274 1 0.16500 119244.000000
10772 15447 1 0.16500 119244.000000
10773 15275 1 0.16500 119244.000000
10773 15381 1 0.16500 119244.000000
10774 15276 1 0.16500 119244.000000
10774 15422 1 0.16500 119244.000000
10775 15277 1 0.16500 119244.000000
10775 15613 1 0.16500 119244.000000
10776 15278 1 0.16500 119244.000000
10776 24582 1 0.16500 119244.000000
10777 15278 1 0.16500 119244.000000
10777 15749 1 0.16500 119244.000000
10778 15280 1 0.16500 119244.000000
10778 15768 1 0.16500 119244.000000
10779 15281 1 0.16500 119244.000000
10779 15464 1 0.16500 119244.000000
10780 15281 1 0.16500 119244.000000
10780 15605 1 0.16500 119244.000000
10781 15285 1 0.16500 119244.000000
10781 16127 1 0.16500 119244.000000
10782 15288 1 0.16500 119244.000000
10782 15296 1 0.16500 119244.000000
10783 15288 1 0.16500 119244.000000
10783 15301 1 0.16500 119244.000000
10784 15291 1 0.16500 119244.000000
10784 24764 1 0.16500 119244.000000
10785 15294 1 0.16500 119244.000000
10785 15366 1 0.16500 119244.000000
10786 15294 1 0.16500 119244.000000
10786 24804 1 0.16500 119244.000000
10787 15296 1 0.16500 119244.000000
10787 15371 1 0.16500 119244.000000
10788 15299 1 0.16500 119244.000000
10788 15989 1 0.16500 119244.000000
10789 15301 1 0.16500 119244.000000
10789 16091 1 0.16500 119244.000000
10790 24300 1 0.16500 119244.000000
10790 24519 1 0.16500 119244.000000
10791 15302 1 0.16500 119244.000000
10791 15910 1 0.16500 119244.000000
10792 15303 1 0.16500 119244.000000
10792 16084 1 0.16500 119244.000000
10793 13624 1 0.16500 119244.000000
10793 15303 1 0.16500 119244.000000
10794 15304 1 0.16500 119244.000000
10794 15763 1 0.16500 119244.000000
10795 15898 1 0.16500 119244.000000
10795 18233 1 0.16500 119244.000000
10796 15305 1 0.16500 119244.000000
10796 16049 1 0.16500 119244.000000
10797 15306 1 0.16500 119244.000000
10797 15483 1 0.16500 119244.000000
10798 15306 1 0.16500 119244.000000
10798 15818 1 0.16500 119244.000000
10799 15308 1 0.16500 119244.000000
10799 15767 1 0.16500 119244.000000
10800 15311 1 0.16500 119244.000000
10800 16208 1 0.16500 119244.000000
10801 15311 1 0.16500 119244.000000
10801 15519 1 0.16500 119244.000000
10802 24303 1 0.16500 119244.000000
10802 24327 1 0.16500 119244.000000
10803 15316 1 0.16500 119244.000000
10803 15800 1 0.16500 119244.000000
10804 16172 1 0.16500 119244.000000
10804 24306 1 0.16500 119244.000000
10805 15317 1 0.16500 119244.000000
10805 16134 1 0.16500 119244.000000
10806 15319 1 0.16500 119244.000000
10806 15578 1 0.16500 119244.000000
10807 15322 1 0.16500 119244.000000
10807 15839 1 0.16500 119244.000000
10808 15323 1 0.16500 119244.000000
10808 24779 1 0.16500 119244.000000
10809 15324 1 0.16500 119244.000000
10809 16047 1 0.16500 119244.000000
10810 15324 1 0.16500 119244.000000
10810 15742 1 0.16500 119244.000000
10811 15327 1 0.16500 119244.000000
10811 15548 1 0.16500 119244.000000
10812 15329 1 0.16500 119244.000000
10812 16076 1 0.16500 119244.000000
10813 15332 1 0.16500 119244.000000
10813 24324 1 0.16500 119244.000000
10814 24315 1 0.16500 119244.000000
10814 24390 1 0.16500 119244.000000
10815 15337 1 0.16500 119244.000000
10815 15427 1 0.16500 119244.000000
10816 15338 1 0.16500 119244.000000
10816 15629 1 0.16500 119244.000000
10817 15340 1 0.16500 119244.000000
10817 16140 1 0.16500 119244.000000
10818 15340 1 0.16500 119244.000000
10818 15899 1 0.16500 119244.000000
10819 14363 1 0.16500 119244.000000
10819 15342 1 0.16500 119244.000000
10820 15344 1 0.16500 119244.000000
10820 15641 1 0.16500 119244.000000
10821 24318 1 0.16500 119244.000000
10821 24749 1 0.16500 119244.000000
10822 14922 1 0.16500 119244.000000
10822 24318 1 0.16500 119244.000000
10823 15348 1 0.16500 119244.000000
10823 15882 1 0.16500 119244.000000
10824 15348 1 0.16500 119244.000000
10824 15579 1 0.16500 119244.000000
10825 15349 1 0.16500 119244.000000
10825 15564 1 0.16500 119244.000000
10826 15350 1 0.16500 119244.000000
10826 15757 1 0.16500 119244.000000
10827 16080 1 0.16500 119244.000000
10827 24324 1 0.16500 119244.000000
10828 15426 1 0.16500 119244.000000
10828 24327 1 0.16500 119244.000000
10829 15359 1 0.16500 119244.000000
10829 24664 1 0.16500 119244.000000
10830 15362 1 0.16500 119244.000000
10830 16159 1 0.16500 119244.000000
10831 15365 1 0.16500 119244.000000
10831 15715 1 0.16500 119244.000000
10832 15366 1 0.16500 119244.000000
10832 15477 1 0.16500 119244.000000
10833 15368 1 0.16500 119244.000000
10833 15962 1 0.16500 119244.000000
10834 15370 1 0.16500 119244.000000
10834 15514 1 0.16500 119244.000000
10835 11633 1 0.16500 119244.000000
10835 15370 1 0.16500 119244.000000
10836 15372 1 0.16500 119244.000000
10836 24138 1 0.16500 119244.000000
10837 15372 1 0.16500 119244.000000
10837 16148 1 0.16500 119244.000000
10838 15373 1 0.16500 119244.000000
10838 15625 1 0.16500 119244.000000
10839 13258 1 0.16500 119244.000000
10839 15387 1 0.16500 119244.000000
10840 15838 1 0.16500 119244.000000
10840 24330 1 0.16500 119244.000000
10841 24330 1 0.16500 119244.000000
10841 24459 1 0.16500 119244.000000
10842 15375 1 0.16500 119244.000000
10842 15570 1 0.16500 119244.000000
10843 12733 1 0.16500 119244.000000
10843 15375 1 0.16500 119244.000000
10844 15378 1 0.16500 119244.000000
10844 15972 1 0.16500 119244.000000
10845 15379 1 0.16500 119244.000000
10845 15923 1 0.16500 119244.000000
10846 15379 1 0.16500 119244.000000
10846 15856 1 0.16500 119244.000000
10847 15380 1 0.16500 119244.000000
10847 16065 1 0.16500 119244.000000
10848 15382 1 0.16500 119244.000000
10848 16072 1 0.16500 119244.000000
10849 15385 1 0.16500 119244.000000
10849 16129 1 0.16500 119244.000000
10850 15390 1 0.16500 119244.000000
10850 16043 1 0.16500 119244.000000
10851 15390 1 0.16500 119244.000000
10851 15878 1 0.16500 119244.000000
10852 15394 1 0.16500 119244.000000
10852 24483 1 0.16500 119244.000000
10853 15395 1 0.16500 119244.000000
10853 16156 1 0.16500 119244.000000
10854 15396 1 0.16500 119244.000000
10854 15459 1 0.16500 119244.000000
10855 15397 1 0.16500 119244.000000
10855 15463 1 0.16500 119244.000000
10856 15399 1 0.16500 119244.000000
10856 15716 1 0.16500 119244.000000
10857 15399 1 0.16500 119244.000000
10857 15553 1 0.16500 119244.000000
10858 15828 1 0.16500 119244.000000
10858 24348 1 0.16500 119244.000000
10859 15400 1 0.16500 119244.000000
10859 15403 1 0.16500 119244.000000
10860 15401 1 0.16500 119244.000000
10860 15554 1 0.16500 119244.000000
10861 15401 1 0.16500 119244.000000
10861 15826 1 0.16500 119244.000000
10862 13844 1 0.16500 119244.000000
10862 15404 1 0.16500 119244.000000
10863 15407 1 0.16500 119244.000000
10863 15526 1 0.16500 119244.000000
10864 13306 1 0.16500 119244.000000
10864 24357 1 0.16500 119244.000000
10865 15411 1 0.16500 119244.000000
10865 15457 1 0.16500 119244.000000
10866 24354 1 0.16500 119244.000000
10866 24441 1 0.16500 119244.000000
10867 15470 1 0.16500 119244.000000
10867 24357 1 0.16500 119244.000000
10868 15455 1 0.16500 119244.000000
10868 18331 1 0.16500 119244.000000
10869 16181 1 0.16500 119244.000000
10869 18331 1 0.16500 119244.000000
10870 15414 1 0.16500 119244.000000
10870 15456 1 0.16500 119244.000000
10871 15420 1 0.16500 119244.000000
10871 15701 1 0.16500 119244.000000
10872 13408 1 0.16500 119244.000000
10872 16007 1 0.16500 119244.000000
10873 15421 1 0.16500 119244.000000
10873 16153 1 0.16500 119244.000000
10874 15421 1 0.16500 119244.000000
10874 15604 1 0.16500 119244.000000
10875 15422 1 0.16500 119244.000000
10875 15533 1 0.16500 119244.000000
10876 15423 1 0.16500 119244.000000
10876 15489 1 0.16500 119244.000000
10877 15240 1 0.16500 119244.000000
10877 15908 1 0.16500 119244.000000
10878 15429 1 0.16500 119244.000000
10878 15530 1 0.16500 119244.000000
10879 15429 1 0.16500 119244.000000
10879 15727 1 0.16500 119244.000000
10880 15430 1 0.16500 119244.000000
10880 16136 1 0.16500 119244.000000
10881 15431 1 0.16500 119244.000000
10881 16183 1 0.16500 119244.000000
10882 15434 1 0.16500 119244.000000
10882 15441 1 0.16500 119244.000000
10883 15435 1 0.16500 119244.000000
10883 15722 1 0.16500 119244.000000
10884 13852 1 0.16500 119244.000000
10884 15475 1 0.16500 119244.000000
10885 15435 1 0.16500 119244.000000
10885 15745 1 0.16500 119244.000000
10886 15436 1 0.16500 119244.000000
10886 16182 1 0.16500 119244.000000
10887 16068 1 0.16500 119244.000000
10887 23877 1 0.16500 119244.000000
10888 15442 1 0.16500 119244.000000
10888 16117 1 0.16500 119244.000000
10889 15443 1 0.16500 119244.000000
10889 15473 1 0.16500 119244.000000
10890 15444 1 0.16500 119244.000000
10890 15724 1 0.16500 119244.000000
10891 15988 1 0.16500 119244.000000
10891 24372 1 0.16500 119244.000000
10892 15446 1 0.16500 119244.000000
10892 15967 1 0.16500 119244.000000
10893 15446 1 0.16500 119244.000000
10893 15712 1 0.16500 119244.000000
10894 15446 1 0.16500 119244.000000
10894 16138 1 0.16500 119244.000000
10895 15447 1 0.16500 119244.000000
10895 15826 1 0.16500 119244.000000
10896 15450 1 0.16500 119244.000000
10896 16187 1 0.16500 119244.000000
10897 15454 1 0.16500 119244.000000
10897 16062 1 0.16500 119244.000000
10898 15456 1 0.16500 119244.000000
10898 15886 1 0.16500 119244.000000
10899 15456 1 0.16500 119244.000000
10899 16082 1 0.16500 119244.000000
10900 15457 1 0.16500 119244.000000
10900 15556 1 0.16500 119244.000000
10901 15396 1 0.16500 119244.000000
10901 15907 1 0.16500 119244.000000
10902 19209 1 0.16500 119244.000000
10902 24489 1 0.16500 119244.000000
10903 15463 1 0.16500 119244.000000
10903 15488 1 0.16500 119244.000000
10904 15465 1 0.16500 119244.000000
10904 15837 1 0.16500 119244.000000
10905 15465 1 0.16500 119244.000000
10905 15674 1 0.16500 119244.000000
10906 15466 1 0.16500 119244.000000
10906 24486 1 0.16500 119244.000000
10907 15467 1 0.16500 119244.000000
10907 16039 1 0.16500 119244.000000
10908 15468 1 0.16500 119244.000000
10908 15502 1 0.16500 119244.000000
10909 15469 1 0.16500 119244.000000
10909 16075 1 0.16500 119244.000000
10910 15469 1 0.16500 119244.000000
10910 15969 1 0.16500 119244.000000
10911 24381 1 0.16500 119244.000000
10911 24402 1 0.16500 119244.000000
10912 15470 1 0.16500 119244.000000
10912 16166 1 0.16500 119244.000000
10913 11960 1 0.16500 119244.000000
10913 15855 1 0.16500 119244.000000
10914 15473 1 0.16500 119244.000000
10914 16003 1 0.16500 119244.000000
10915 15476 1 0.16500 119244.000000
10915 15694 1 0.16500 119244.000000
10916 15477 1 0.16500 119244.000000
10916 24480 1 0.16500 119244.000000
10917 11764 1 0.16500 119244.000000
10917 15478 1 0.16500 119244.000000
10918 15481 1 0.16500 119244.000000
10918 15842 1 0.16500 119244.000000
10919 15487 1 0.16500 119244.000000
10919 15593 1 0.16500 119244.000000
10920 14117 1 0.16500 119244.000000
10920 15855 1 0.16500 119244.000000
10921 15491 1 0.16500 119244.000000
10921 16058 1 0.16500 119244.000000
10922 15491 1 0.16500 119244.000000
10922 15926 1 0.16500 119244.000000
10923 24387 1 0.16500 119244.000000
10923 24694 1 0.16500 119244.000000
10924 15495 1 0.16500 119244.000000
10924 15750 1 0.16500 119244.000000
10925 15498 1 0.16500 119244.000000
10925 15667 1 0.16500 119244.000000
10926 15501 1 0.16500 119244.000000
10926 15658 1 0.16500 119244.000000
10927 15502 1 0.16500 119244.000000
10927 15679 1 0.16500 119244.000000
10928 15503 1 0.16500 119244.000000
10928 15658 1 0.16500 119244.000000
10929 15503 1 0.16500 119244.000000
10929 16026 1 0.16500 119244.000000
10930 15504 1 0.16500 119244.000000
10930 15683 1 0.16500 119244.000000
10931 15511 1 0.16500 119244.000000
10931 16109 1 0.16500 119244.000000
10932 15515 1 0.16500 119244.000000
10932 15978 1 0.16500 119244.000000
10933 15518 1 0.16500 119244.000000
10933 15815 1 0.16500 119244.000000
10934 15521 1 0.16500 119244.000000
10934 16196 1 0.16500 119244.000000
10935 15526 1 0.16500 119244.000000
10935 15843 1 0.16500 119244.000000
10936 15535 1 0.16500 119244.000000
10936 15689 1 0.16500 119244.000000
10937 15537 1 0.16500 119244.000000
10937 15872 1 0.16500 119244.000000
10938 15538 1 0.16500 119244.000000
10938 16073 1 0.16500 119244.000000
10939 15541 1 0.16500 119244.000000
10939 16186 1 0.16500 119244.000000
10940 24432 1 0.16500 119244.000000
10940 24659 1 0.16500 119244.000000
10941 15542 1 0.16500 119244.000000
10941 15879 1 0.16500 119244.000000
10942 15971 1 0.16500 119244.000000
10942 24411 1 0.16500 119244.000000
10943 15546 1 0.16500 119244.000000
10943 15817 1 0.16500 119244.000000
10944 13682 1 0.16500 119244.000000
10944 15546 1 0.16500 119244.000000
10945 15548 1 0.16500 119244.000000
10945 24597 1 0.16500 119244.000000
10946 15549 1 0.16500 119244.000000
10946 15741 1 0.16500 119244.000000
10947 15550 1 0.16500 119244.000000
10947 16198 1 0.16500 119244.000000
10948 15551 1 0.16500 119244.000000
10948 15817 1 0.16500 119244.000000
10949 24417 1 0.16500 119244.000000
10949 24669 1 0.16500 119244.000000
10950 15669 1 0.16500 119244.000000
10950 24417 1 0.16500 119244.000000
10951 15554 1 0.16500 119244.000000
10951 15616 1 0.16500 119244.000000
10952 15554 1 0.16500 119244.000000
10952 15685 1 0.16500 119244.000000
10953 15555 1 0.16500 119244.000000
10953 16124 1 0.16500 119244.000000
10954 15558 1 0.16500 119244.000000
10954 15954 1 0.16500 119244.000000
10955 15559 1 0.16500 119244.000000
10955 15665 1 0.16500 119244.000000
10956 15561 1 0.16500 119244.000000
10956 15606 1 0.16500 119244.000000
10957 24664 1 0.16500 119244.000000
10957 24794 1 0.16500 119244.000000
10958 15569 1 0.16500 119244.000000
10958 15740 1 0.16500 119244.000000
10959 15571 1 0.16500 119244.000000
10959 16135 1 0.16500 119244.000000
10960 15571 1 0.16500 119244.000000
10960 16026 1 0.16500 119244.000000
10961 15571 1 0.16500 119244.000000
10961 16187 1 0.16500 119244.000000
10962 15572 1 0.16500 119244.000000
10962 15659 1 0.16500 119244.000000
10963 15574 1 0.16500 119244.000000
10963 15750 1 0.16500 119244.000000
10964 15595 1 0.16500 119244.000000
10964 24429 1 0.16500 119244.000000
10965 16029 1 0.16500 119244.000000
10965 24429 1 0.16500 119244.000000
10966 15575 1 0.16500 119244.000000
10966 15694 1 0.16500 119244.000000
10967 15577 1 0.16500 119244.000000
10967 15927 1 0.16500 119244.000000
10968 15578 1 0.16500 119244.000000
10968 15824 1 0.16500 119244.000000
10969 15579 1 0.16500 119244.000000
10969 15668 1 0.16500 119244.000000
10970 15580 1 0.16500 119244.000000
10970 15630 1 0.16500 119244.000000
10971 15581 1 0.16500 119244.000000
10971 15734 1 0.16500 119244.000000
10972 15582 1 0.16500 119244.000000
10972 15992 1 0.16500 119244.000000
10973 15585 1 0.16500 119244.000000
10973 16032 1 0.16500 119244.000000
10974 11693 1 0.16500 119244.000000
10974 24555 1 0.16500 119244.000000
10975 15587 1 0.16500 119244.000000
10975 15826 1 0.16500 119244.000000
10976 15590 1 0.16500 119244.000000
10976 15808 1 0.16500 119244.000000
10977 15593 1 0.16500 119244.000000
10977 15643 1 0.16500 119244.000000
10978 15593 1 0.16500 119244.000000
10978 16049 1 0.16500 119244.000000
10979 15594 1 0.16500 119244.000000
10979 15899 1 0.16500 119244.000000
10980 15680 1 0.16500 119244.000000
10980 15933 1 0.16500 119244.000000
10981 15595 1 0.16500 119244.000000
10981 15933 1 0.16500 119244.000000
10982 15596 1 0.16500 119244.000000
10982 15612 1 0.16500 119244.000000
10983 15600 1 0.16500 119244.000000
10983 15909 1 0.16500 119244.000000
10984 15600 1 0.16500 119244.000000
10984 16024 1 0.16500 119244.000000
10985 15600 1 0.16500 119244.000000
10985 16109 1 0.16500 119244.000000
10986 15601 1 0.16500 119244.000000
10986 15984 1 0.16500 119244.000000
10987 15605 1 0.16500 119244.000000
10987 15841 1 0.16500 119244.000000
10988 16153 1 0.16500 119244.000000
10988 24438 1 0.16500 119244.000000
10989 15606 1 0.16500 119244.000000
10989 16073 1 0.16500 119244.000000
10990 15610 1 0.16500 119244.000000
10990 15918 1 0.16500 119244.000000
10991 16112 1 0.16500 119244.000000
10991 24447 1 0.16500 119244.000000
10992 15623 1 0.16500 119244.000000
10992 15955 1 0.16500 119244.000000
10993 15626 1 0.16500 119244.000000
10993 16103 1 0.16500 119244.000000
10994 15628 1 0.16500 119244.000000
10994 15837 1 0.16500 119244.000000
10995 24453 1 0.16500 119244.000000
10995 24465 1 0.16500 119244.000000
10996 15638 1 0.16500 119244.000000
10996 16210 1 0.16500 119244.000000
10997 15639 1 0.16500 119244.000000
10997 15927 1 0.16500 119244.000000
10998 11598 1 0.16500 119244.000000
10998 15645 1 0.16500 119244.000000
10999 15647 1 0.16500 119244.000000
10999 15718 1 0.16500 119244.000000
11000 15647 1 0.16500 119244.000000
11000 15834 1 0.16500 119244.000000
11001 15648 1 0.16500 119244.000000
11001 15976 1 0.16500 119244.000000
11002 15648 1 0.16500 119244.000000
11002 15908 1 0.16500 119244.000000
11003 15650 1 0.16500 119244.000000
11003 15755 1 0.16500 119244.000000
11004 15650 1 0.16500 119244.000000
11004 15726 1 0.16500 119244.000000
11005 15657 1 0.16500 119244.000000
11005 16008 1 0.16500 119244.000000
11006 13928 1 0.16500 119244.000000
11006 15790 1 0.16500 119244.000000
11007 15663 1 0.16500 119244.000000
11007 16092 1 0.16500 119244.000000
11008 15663 1 0.16500 119244.000000
11008 15781 1 0.16500 119244.000000
11009 15833 1 0.16500 119244.000000
11009 24462 1 0.16500 119244.000000
11010 15672 1 0.16500 119244.000000
11010 16025 1 0.16500 119244.000000
11011 15675 1 0.16500 119244.000000
11011 15918 1 0.16500 119244.000000
11012 15678 1 0.16500 119244.000000
11012 15713 1 0.16500 119244.000000
11013 15679 1 0.16500 119244.000000
11013 16018 1 0.16500 119244.000000
11014 15680 1 0.16500 119244.000000
11014 24522 1 0.16500 119244.000000
11015 15681 1 0.16500 119244.000000
11015 16191 1 0.16500 119244.000000
11016 15682 1 0.16500 119244.000000
11016 16156 1 0.16500 119244.000000
11017 15504 1 0.16500 119244.000000
11017 16063 1 0.16500 119244.000000
11018 15684 1 0.16500 119244.000000
11018 16046 1 0.16500 119244.000000
11019 15684 1 0.16500 119244.000000
11019 16180 1 0.16500 119244.000000
11020 15691 1 0.16500 119244.000000
11020 15778 1 0.16500 119244.000000
11021 15778 1 0.16500 119244.000000
11021 15959 1 0.16500 119244.000000
11022 14734 1 0.16500 119244.000000
11022 15692 1 0.16500 119244.000000
11023 15693 1 0.16500 119244.000000
11023 15777 1 0.16500 119244.000000
11024 15699 1 0.16500 119244.000000
11024 16146 1 0.16500 119244.000000
11025 15699 1 0.16500 119244.000000
11025 15863 1 0.16500 119244.000000
11026 15700 1 0.16500 119244.000000
11026 15984 1 0.16500 119244.000000
11027 15704 1 0.16500 119244.000000
11027 15972 1 0.16500 119244.000000
11028 15706 1 0.16500 119244.000000
11028 15830 1 0.16500 119244.000000
11029 15707 1 0.16500 119244.000000
11029 24576 1 0.16500 119244.000000
11030 15707 1 0.16500 119244.000000
11030 15980 1 0.16500 119244.000000
11031 15708 1 0.16500 119244.000000
11031 16065 1 0.16500 119244.000000
11032 24471 1 0.16500 119244.000000
11032 24759 1 0.16500 119244.000000
11033 15713 1 0.16500 119244.000000
11033 16194 1 0.16500 119244.000000
11034 15721 1 0.16500 119244.000000
11034 15921 1 0.16500 119244.000000
11035 15727 1 0.16500 119244.000000
11035 15842 1 0.16500 119244.000000
11036 15729 1 0.16500 119244.000000
11036 16200 1 0.16500 119244.000000
11037 15731 1 0.16500 119244.000000
11037 15789 1 0.16500 119244.000000
11038 15733 1 0.16500 119244.000000
11038 15788 1 0.16500 119244.000000
11039 15740 1 0.16500 119244.000000
11039 16145 1 0.16500 119244.000000
11040 12889 1 0.16500 119244.000000
11040 15747 1 0.16500 119244.000000
11041 15751 1 0.16500 119244.000000
11041 15934 1 0.16500 119244.000000
11042 15751 1 0.16500 119244.000000
11042 15965 1 0.16500 119244.000000
11043 15756 1 0.16500 119244.000000
11043 16151 1 0.16500 119244.000000
11044 24585 1 0.16500 119244.000000
11044 24699 1 0.16500 119244.000000
11045 15759 1 0.16500 119244.000000
11045 15863 1 0.16500 119244.000000
11046 15762 1 0.16500 119244.000000
11046 15964 1 0.16500 119244.000000
11047 15762 1 0.16500 119244.000000
11047 16142 1 0.16500 119244.000000
11048 15764 1 0.16500 119244.000000
11048 16079 1 0.16500 119244.000000
11049 15765 1 0.16500 119244.000000
11049 24567 1 0.16500 119244.000000
11050 15767 1 0.16500 119244.000000
11050 15816 1 0.16500 119244.000000
11051 15773 1 0.16500 119244.000000
11051 15882 1 0.16500 119244.000000
11052 15779 1 0.16500 119244.000000
11052 15833 1 0.16500 119244.000000
11053 15780 1 0.16500 119244.000000
11053 16033 1 0.16500 119244.000000
11054 14348 1 0.16500 119244.000000
11054 16036 1 0.16500 119244.000000
11055 14348 1 0.16500 119244.000000
11055 16019 1 0.16500 119244.000000
11056 15784 1 0.16500 119244.000000
11056 16127 1 0.16500 119244.000000
11057 15792 1 0.16500 119244.000000
11057 15901 1 0.16500 119244.000000
11058 15794 1 0.16500 119244.000000
11058 16137 1 0.16500 119244.000000
11059 15796 1 0.16500 119244.000000
11059 16174 1 0.16500 119244.000000
11060 15797 1 0.16500 119244.000000
11060 15983 1 0.16500 119244.000000
11061 15797 1 0.16500 119244.000000
11061 15887 1 0.16500 119244.000000
11062 11939 1 0.16500 119244.000000
11062 24709 1 0.16500 119244.000000
11063 15799 1 0.16500 119244.000000
11063 15989 1 0.16500 119244.000000
11064 15804 1 0.16500 119244.000000
11064 16121 1 0.16500 119244.000000
11065 15806 1 0.16500 119244.000000
11065 16044 1 0.16500 119244.000000
11066 15808 1 0.16500 119244.000000
11066 16073 1 0.16500 119244.000000
11067 12505 1 0.16500 119244.000000
11067 15977 1 0.16500 119244.000000
11068 15811 1 0.16500 119244.000000
11068 16169 1 0.16500 119244.000000
11069 15994 1 0.16500 119244.000000
11069 24492 1 0.16500 119244.000000
11070 15813 1 0.16500 119244.000000
11070 16004 1 0.16500 119244.000000
11071 15814 1 0.16500 119244.000000
11071 15845 1 0.16500 119244.000000
11072 15675 1 0.16500 119244.000000
11072 15815 1 0.16500 119244.000000
11073 15815 1 0.16500 119244.000000
11073 15952 1 0.16500 119244.000000
11074 15820 1 0.16500 119244.000000
11074 15944 1 0.16500 119244.000000
11075 15828 1 0.16500 119244.000000
11075 24495 1 0.16500 119244.000000
11076 15827 1 0.16500 119244.000000
11076 16020 1 0.16500 119244.000000
11077 15835 1 0.16500 119244.000000
11077 15849 1 0.16500 119244.000000
11078 11855 1 0.16500 119244.000000
11078 24504 1 0.16500 119244.000000
11079 15845 1 0.16500 119244.000000
11079 16088 1 0.16500 119244.000000
11080 15845 1 0.16500 119244.000000
11080 15852 1 0.16500 119244.000000
11081 15847 1 0.16500 119244.000000
11081 24537 1 0.16500 119244.000000
11082 15851 1 0.16500 119244.000000
11082 16047 1 0.16500 119244.000000
11083 15857 1 0.16500 119244.000000
11083 15955 1 0.16500 119244.000000
11084 15865 1 0.16500 119244.000000
11084 16089 1 0.16500 119244.000000
11085 15867 1 0.16500 119244.000000
11085 16106 1 0.16500 119244.000000
11086 15871 1 0.16500 119244.000000
11086 15912 1 0.16500 119244.000000
11087 15873 1 0.16500 119244.000000
11087 16030 1 0.16500 119244.000000
11088 15878 1 0.16500 119244.000000
11088 16179 1 0.16500 119244.000000
11089 15880 1 0.16500 119244.000000
11089 16107 1 0.16500 119244.000000
11090 12523 1 0.16500 119244.000000
11090 15880 1 0.16500 119244.000000
11091 15881 1 0.16500 119244.000000
11091 16119 1 0.16500 119244.000000
11092 15978 1 0.16500 119244.000000
11092 24724 1 0.16500 119244.000000
11093 15889 1 0.16500 119244.000000
11093 15995 1 0.16500 119244.000000
11094 15903 1 0.16500 119244.000000
11094 16131 1 0.16500 119244.000000
11095 15911 1 0.16500 119244.000000
11095 16068 1 0.16500 119244.000000
11096 15916 1 0.16500 119244.000000
11096 16083 1 0.16500 119244.000000
11097 16068 1 0.16500 119244.000000
11097 24739 1 0.16500 119244.000000
11098 15929 1 0.16500 119244.000000
11098 15959 1 0.16500 119244.000000
11099 15939 1 0.16500 119244.000000
11099 16194 1 0.16500 119244.000000
11100 15940 1 0.16500 119244.000000
11100 16072 1 0.16500 119244.000000
11101 15942 1 0.16500 119244.000000
11101 16118 1 0.16500 119244.000000
11102 15942 1 0.16500 119244.000000
11102 16001 1 0.16500 119244.000000
11103 15943 1 0.16500 119244.000000
11103 15973 1 0.16500 119244.000000
11104 15944 1 0.16500 119244.000000
11104 15961 1 0.16500 119244.000000
11105 15946 1 0.16500 119244.000000
11105 16181 1 0.16500 119244.000000
11106 15947 1 0.16500 119244.000000
11106 15982 1 0.16500 119244.000000
11107 15949 1 0.16500 119244.000000
11107 15957 1 0.16500 119244.000000
11108 15956 1 0.16500 119244.000000
11108 16142 1 0.16500 119244.000000
11109 15963 1 0.16500 119244.000000
11109 16015 1 0.16500 119244.000000
11110 15965 1 0.16500 119244.000000
11110 24573 1 0.16500 119244.000000
11111 15972 1 0.16500 119244.000000
11111 16150 1 0.16500 119244.000000
11112 15977 1 0.16500 119244.000000
11112 16171 1 0.16500 119244.000000
11113 15978 1 0.16500 119244.000000
11113 16071 1 0.16500 119244.000000
11114 15979 1 0.16500 119244.000000
11114 16067 1 0.16500 119244.000000
11115 15987 1 0.16500 119244.000000
11115 16036 1 0.16500 119244.000000
11116 16155 1 0.16500 119244.000000
11116 24567 1 0.16500 119244.000000
11117 15991 1 0.16500 119244.000000
11117 16160 1 0.16500 119244.000000
11118 15996 1 0.16500 119244.000000
11118 16176 1 0.16500 119244.000000
11119 16000 1 0.16500 119244.000000
11119 16209 1 0.16500 119244.000000
11120 16001 1 0.16500 119244.000000
11120 16105 1 0.16500 119244.000000
11121 16004 1 0.16500 119244.000000
11121 16130 1 0.16500 119244.000000
11122 16019 1 0.16500 119244.000000
11122 16101 1 0.16500 119244.000000
11123 16022 1 0.16500 119244.000000
11123 16085 1 0.16500 119244.000000
11124 16035 1 0.16500 119244.000000
11124 16118 1 0.16500 119244.000000
11125 16111 1 0.16500 119244.000000
11125 24591 1 0.16500 119244.000000
11126 16055 1 0.16500 119244.000000
11126 16099 1 0.16500 119244.000000
11127 16059 1 0.16500 119244.000000
11127 16077 1 0.16500 119244.000000
11128 16061 1 0.16500 119244.000000
11128 16154 1 0.16500 119244.000000
11129 16063 1 0.16500 119244.000000
11129 16096 1 0.16500 119244.000000
11130 16070 1 0.16500 119244.000000
11130 16089 1 0.16500 119244.000000
11131 16080 1 0.16500 119244.000000
11131 16188 1 0.16500 119244.000000
11132 16091 1 0.16500 119244.000000
11132 16188 1 0.16500 119244.000000
11133 16110 1 0.16500 119244.000000
11133 16167 1 0.16500 119244.000000
11134 16121 1 0.16500 119244.000000
11134 16196 1 0.16500 119244.000000
11135 16123 1 0.16500 119244.000000
11135 16180 1 0.16500 119244.000000
11136 16152 1 0.16500 119244.000000
11136 16206 1 0.16500 119244.000000
11137 16157 1 0.16500 119244.000000
11137 24809 1 0.16500 119244.000000
11138 11254 1 0.16500 119244.000000
11138 18381 1 0.16500 119244.000000
11139 18429 1 0.16500 119244.000000
11139 23853 1 0.16500 119244.000000
11140 18441 1 0.16500 119244.000000
11140 19173 1 0.16500 119244.000000
11141 13416 1 0.16500 119244.000000
11141 18501 1 0.16500 119244.000000
11142 18513 1 0.16500 119244.000000
11142 19857 1 0.16500 119244.000000
11143 18609 1 0.16500 119244.000000
11143 22509 1 0.16500 119244.000000
11144 18621 1 0.16500 119244.000000
11144 20613 1 0.16500 119244.000000
11145 18633 1 0.16500 119244.000000
11145 24162 1 0.16500 119244.000000
11146 18645 1 0.16500 119244.000000
11146 24108 1 0.16500 119244.000000
11147 18825 1 0.16500 119244.000000
11147 21573 1 0.16500 119244.000000
11148 18945 1 0.16500 119244.000000
11148 19989 1 0.16500 119244.000000
11149 19005 1 0.16500 119244.000000
11149 24450 1 0.16500 119244.000000
11150 19065 1 0.16500 119244.000000
11150 20565 1 0.16500 119244.000000
11151 19077 1 0.16500 119244.000000
11151 22425 1 0.16500 119244.000000
11152 19101 1 0.16500 119244.000000
11152 19797 1 0.16500 119244.000000
11153 19113 1 0.16500 119244.000000
11153 19497 1 0.16500 119244.000000
11154 19125 1 0.16500 119244.000000
11154 20649 1 0.16500 119244.000000
11155 19197 1 0.16500 119244.000000
11155 24483 1 0.16500 119244.000000
11156 19245 1 0.16500 119244.000000
11156 22665 1 0.16500 119244.000000
11157 19281 1 0.16500 119244.000000
11157 20061 1 0.16500 119244.000000
11158 19329 1 0.16500 119244.000000
11158 24111 1 0.16500 119244.000000
11159 19365 1 0.16500 119244.000000
11159 24066 1 0.16500 119244.000000
11160 19413 1 0.16500 119244.000000
11160 24180 1 0.16500 119244.000000
11161 15427 1 0.16500 119244.000000
11161 19545 1 0.16500 119244.000000
11162 19629 1 0.16500 119244.000000
11162 24543 1 0.16500 119244.000000
11163 19689 1 0.16500 119244.000000
11163 24477 1 0.16500 119244.000000
11164 19701 1 0.16500 119244.000000
11164 23361 1 0.16500 119244.000000
11165 19737 1 0.16500 119244.000000
11165 23349 1 0.16500 119244.000000
11166 19785 1 0.16500 119244.000000
11166 24090 1 0.16500 119244.000000
11167 19845 1 0.16500 119244.000000
11167 23625 1 0.16500 119244.000000
11168 14613 1 0.16500 119244.000000
11168 18585 1 0.16500 119244.000000
11169 12613 1 0.16500 119244.000000
11169 18705 1 0.16500 119244.000000
11170 13584 1 0.16500 119244.000000
11170 18777 1 0.16500 119244.000000
11171 12231 1 0.16500 119244.000000
11171 18849 1 0.16500 119244.000000
11172 16151 1 0.16500 119244.000000
11172 18861 1 0.16500 119244.000000
11173 11351 1 0.16500 119244.000000
11173 18933 1 0.16500 119244.000000
11174 11921 1 0.16500 119244.000000
11174 19053 1 0.16500 119244.000000
11175 11428 1 0.16500 119244.000000
11175 19473 1 0.16500 119244.000000
11176 11723 1 0.16500 119244.000000
11176 14730 1 0.16500 119244.000000
11177 12655 1 0.16500 119244.000000
11177 19569 1 0.16500 119244.000000
11178 13655 1 0.16500 119244.000000
11178 19605 1 0.16500 119244.000000
11179 12454 1 0.16500 119244.000000
11179 19641 1 0.16500 119244.000000
11180 15467 1 0.16500 119244.000000
11180 19941 1 0.16500 119244.000000
11181 13416 1 0.16500 119244.000000
11181 19977 1 0.16500 119244.000000
11182 12488 1 0.16500 119244.000000
11182 20037 1 0.16500 119244.000000
11183 14968 1 0.16500 119244.000000
11183 20049 1 0.16500 119244.000000
11184 14717 1 0.16500 119244.000000
11184 20085 1 0.16500 119244.000000
11185 11838 1 0.16500 119244.000000
11185 20097 1 0.16500 119244.000000
11186 14286 1 0.16500 119244.000000
11186 20157 1 0.16500 119244.000000
11187 13665 1 0.16500 119244.000000
11187 20181 1 0.16500 119244.000000
11188 15519 1 0.16500 119244.000000
11188 20217 1 0.16500 119244.000000
11189 15427 1 0.16500 119244.000000
11189 20289 1 0.16500 119244.000000
11190 16098 1 0.16500 119244.000000
11190 20301 1 0.16500 119244.000000
11191 13863 1 0.16500 119244.000000
11191 20337 1 0.16500 119244.000000
11192 11254 1 0.16500 119244.000000
11192 20409 1 0.16500 119244.000000
11193 14444 1 0.16500 119244.000000
11193 20505 1 0.16500 119244.000000
11194 14543 1 0.16500 119244.000000
11194 20517 1 0.16500 119244.000000
11195 15406 1 0.16500 119244.000000
11195 20529 1 0.16500 119244.000000
11196 15663 1 0.16500 119244.000000
11196 20637 1 0.16500 119244.000000
11197 12062 1 0.16500 119244.000000
11197 20661 1 0.16500 119244.000000
11198 11230 1 0.16500 119244.000000
11198 20709 1 0.16500 119244.000000
11199 12027 1 0.16500 119244.000000
11199 12378 1 0.16500 119244.000000
11200 14529 1 0.16500 119244.000000
11200 20805 1 0.16500 119244.000000
11201 13068 1 0.16500 119244.000000
11201 20829 1 0.16500 119244.000000
11202 13247 1 0.16500 119244.000000
11202 20889 1 0.16500 119244.000000
11203 11842 1 0.16500 119244.000000
11203 20901 1 0.16500 119244.000000
11204 12378 1 0.16500 119244.000000
11204 20937 1 0.16500 119244.000000
11205 14260 1 0.16500 119244.000000
11205 20949 1 0.16500 119244.000000
11206 15590 1 0.16500 119244.000000
11206 20961 1 0.16500 119244.000000
11207 15005 1 0.16500 119244.000000
11207 20985 1 0.16500 119244.000000
11208 15669 1 0.16500 119244.000000
11208 20997 1 0.16500 119244.000000
11209 14780 1 0.16500 119244.000000
11209 21009 1 0.16500 119244.000000
11210 12041 1 0.16500 119244.000000
11210 21033 1 0.16500 119244.000000
11211 15833 1 0.16500 119244.000000
11211 21069 1 0.16500 119244.000000
11212 13263 1 0.16500 119244.000000
11212 21081 1 0.16500 119244.000000
11213 11948 1 0.16500 119244.000000
11213 21117 1 0.16500 119244.000000
11214 11241 1 0.16500 119244.000000
11214 21141 1 0.16500 119244.000000
11215 12896 1 0.16500 119244.000000
11215 21153 1 0.16500 119244.000000
11216 15954 1 0.16500 119244.000000
11216 21225 1 0.16500 119244.000000
11217 13779 1 0.16500 119244.000000
11217 21249 1 0.16500 119244.000000
11218 12582 1 0.16500 119244.000000
11218 21261 1 0.16500 119244.000000
11219 15501 1 0.16500 119244.000000
11219 21345 1 0.16500 119244.000000
11220 14578 1 0.16500 119244.000000
11220 21357 1 0.16500 119244.000000
11221 14625 1 0.16500 119244.000000
11221 21369 1 0.16500 119244.000000
11222 15755 1 0.16500 119244.000000
11222 21381 1 0.16500 119244.000000
11223 15421 1 0.16500 119244.000000
11223 21405 1 0.16500 119244.000000
11224 16133 1 0.16500 119244.000000
11224 21417 1 0.16500 119244.000000
11225 11723 1 0.16500 119244.000000
11225 21441 1 0.16500 119244.000000
11226 14567 1 0.16500 119244.000000
11226 21477 1 0.16500 119244.000000
16214 16215 1 0.10860 301825.392000
16215 16216 1 0.13986 296436.400000
16215 16224 1 0.13986 296436.400000
16216 16217 1 0.18850 35430.112000
16216 16218 1 0.13986 296436.400000
16217 16226 1 0.16500 119244.000000
16218 16219 1 0.10860 301825.392000
16218 16220 1 0.13986 296436.400000
16220 16221 1 0.10860 301825.392000
16220 16222 1 0.13986 296436.400000
16222 16223 1 0.10860 301825.392000
16222 16224 1 0.13986 296436.400000
16224 16225 1 0.10860 301825.392000
16226 16227 1 0.09450 207108.000000
16228 16229 1 0.10860 301825.392000
16229 16230 1 0.13986 296436.400000
16229 16238 1 0.13986 296436.400000
16230 16231 1 0.18850 35430.112000
16230 16232 1 0.13986 296436.400000
16231 16240 1 0.16500 119244.000000
16232 16233 1 0.10860 301825.392000
16232 16234 1 0.13986 296436.400000
16234 16235 1 0.10860 301825.392000
16234 16236 1 0.13986 296436.400000
16236 16237 1 0.10860 301825.392000
16236 16238 1 0.13986 296436.400000
16238 16239 1 0.10860 301825.392000
16240 16241 1 0.09450 207108.000000
16242 16243 1 0.10860 301825.392000
16243 16244 1 0.13986 296436.400000
16243 16252 1 0.13986 296436.400000
16244 16245 1 0.18850 35430.112000
16244 16246 1 0.13986 296436.400000
16245 16254 1 0.16500 119244.000000
16246 16247 1 0.10860 301825.392000
16246 16248 1 0.13986 296436.400000
16248 16249 1 0.10860 301825.392000
16248 16250 1 0.13986 296436.400000
16250 16251 1 0.10860 301825.392000
16250 16252 1 0.13986 296436.400000
16252 16253 1 0.10860 301825.392000
16254 16255 1 0.09450 207108.000000
16256 16257 1 0.10860 301825.392000
16257 16258 1 0.13986 296436.400000
16257 16266 1 0.13986 296436.400000
16258 16259 1 0.18850 35430.112000
16258 16260 1 0.13986 296436.400000
16259 16268 1 0.16500 119244.000000
16260 16261 1 0.10860 301825.392000
16260 16262 1 0.13986 296436.400000
16262 16263 1 0.10860 301825.392000
16262 16264 1 0.13986 296436.400000
16264 16265 1 0.10860 301825.392000
16264 16266 1 0.13986 296436.400000
16266 16267 1 0.10860 301825.392000
16268 16269 1 0.09450 207108.000000
16270 16271 1 0.10860 301825.392000
16271 16272 1 0.13986 296436.400000
16271 16280 1 0.13986 296436.400000
16272 16273 1 0.18850 35430.112000
16272 16274 1 0.13986 296436.400000
16273 16282 1 0.16500 119244.000000
16274 16275 1 0.10860 301825.392000
16274 16276 1 0.13986 296436.400000
16276 16277 1 0.10860 301825.392000
16276 16278 1 0.13986 296436.400000
16278 16279 1 0.10860 301825.392000
16278 16280 1 0.13986 296436.400000
16280 16281 1 0.10860 301825.392000
16282 16283 1 0.09450 207108.000000
16284 16285 1 0.10860 301825.392000
16285 16286 1 0.13986 296436.400000
16285 16294 1 0.13986 296436.400000
16286 16287 1 0.18850 35430.112000
16286 16288 1 0.13986 296436.400000
16287 16296 1 0.16500 119244.000000
16288 16289 1 0.10860 301825.392000
16288 16290 1 0.13986 296436.400000
16290 16291 1 0.10860 301825.392000
16290 16292 1 0.13986 296436.400000
16292 16293 1 0.10860 301825.392000
16292 16294 1 0.13986 296436.400000
16294 16295 1 0.10860 301825.392000
16296 16297 1 0.09450 207108.000000
16298 16299 1 0.10860 301825.392000
16299 16300 1 0.13986 296436.400000
16299 16308 1 0.13986 296436.400000
16300 16301 1 0.18850 35430.112000
16300 16302 1 0.13986 296436.400000
16301 16310 1 0.16500 119244.000000
16302 16303 1 0.10860 301825.392000
16302 16304 1 0.13986 296436.400000
16304 16305 1 0.10860 301825.392000
16304 16306 1 0.13986 296436.400000
16306 16307 1 0.10860 301825.392000
16306 16308 1 0.13986 296436.400000
16308 16309 1 0.10860 301825.392000
16310 16311 1 0.09450 207108.000000
16312 16313 1 0.10860 301825.392000
16313 16314 1 0.13986 296436.400000
16313 16322 1 0.13986 296436.400000
16314 16315 1 0.18850 35430.112000
16314 16316 1 0.13986 296436.400000
16315 16324 1 0.16500 119244.000000
16316 16317 1 0.10860 301825.392000
16316 16318 1 0.13986 296436.400000
16318 16319 1 0.10860 301825.392000
16318 16320 1 0.13986 296436.400000
16320 16321 1 0.10860 301825.392000
16320 16322 1 0.13986 296436.400000
16322 16323 1 0.10860 301825.392000
16324 16325 1 0.09450 207108.000000
16326 16327 1 0.10860 301825.392000
16327 16328 1 0.13986 296436.400000
16327 16336 1 0.13986 296436.400000
16328 16329 1 0.18850 35430.112000
16328 16330 1 0.13986 296436.400000
16329 16338 1 0.16500 119244.000000
16330 16331 1 0.10860 301825.392000
16330 16332 1 0.13986 296436.400000
16332 16333 1 0.10860 301825.392000
16332 16334 1 0.13986 296436.400000
16334 16335 1 0.10860 301825.392000
16334 16336 1 0.13986 296436.400000
16336 16337 1 0.10860 301825.392000
16338 16339 1 0.09450 207108.000000
16340 16341 1 0.10860 301825.392000
16341 16342 1 0.13986 296436.400000
16341 16350 1 0.13986 296436.400000
16342 16343 1 0.18850 35430.112000
16342 16344 1 0.13986 296436.400000
16343 16352 1 0.16500 119244.000000
16344 16345 1 0.10860 301825.392000
16344 16346 1 0.13986 296436.400000
16346 16347 1 0.10860 301825.392000
16346 16348 1 0.13986 296436.400000
16348 16349 1 0.10860 301825.392000
16348 16350 1 0.13986 296436.400000
16350 16351 1 0.10860 301825.392000
16352 16353 1 0.09450 207108.000000
16354 16355 1 0.10860 301825.392000
16355 16356 1 0.13986 296436.400000
16355 16364 1 0.13986 296436.400000
16356 16357 1 0.18850 35430.112000
16356 16358 1 0.13986 296436.400000
16357 16366 1 0.16500 119244.000000
16358 16359 1 0.10860 301825.392000
16358 16360 1 0.13986 296436.400000
16360 16361 1 0.10860 301825.392000
16360 16362 1 0.13986 296436.400000
16362 16363 1 0.10860 301825.392000
16362 16364 1 0.13986 296436.400000
16364 16365 1 0.10860 301825.392000
16366 16367 1 0.09450 207108.000000
16368 16369 1 0.10860 301825.392000
16369 16370 1 0.13986 296436.400000
16369 16378 1 0.13986 296436.400000
16370 16371 1 0.18850 35430.112000
16370 16372 1 0.13986 296436.400000
16371 16380 1 0.16500 119244.000000
16372 16373 1 0.10860 301825.392000
16372 16374 1 0.13986 296436.400000
16374 16375 1 0.10860 301825.392000
16374 16376 1 0.13986 296436.400000
16376 16377 1 0.10860 301825.392000
16376 16378 1 0.13986 296436.400000
16378 16379 1 0.10860 301825.392000
16380 16381 1 0.09450 207108.000000
16382 16383 1 0.10860 301825.392000
16383 16384 1 0.13986 296436.400000
16383 16392 1 0.13986 296436.400000
16384 16385 1 0.18850 35430.112000
16384 16386 1 0.13986 296436.400000
16385 16394 1 0.16500 119244.000000
16386 16387 1 0.10860 301825.392000
16386 16388 1 0.13986 296436.400000
16388 16389 1 0.10860 301825.392000
16388 16390 1 0.13986 296436.400000
16390 16391 1 0.10860 301825.392000
16390 16392 1 0.13986 296436.400000
16392 16393 1 0.10860 301825.392000
16394 16395 1 0.09450 207108.000000
16396 16397 1 0.10860 301825.392000
16397 16398 1 0.13986 296436.400000
16397 16406 1 0.13986 296436.400000
16398 16399 1 0.18850 35430.112000
16398 16400 1 0.13986 296436.400000
16399 16408 1 0.16500 119244.000000
16400 16401 1 0.10860 301825.392000
16400 16402 1 0.13986 296436.400000
16402 16403 1 0.10860 301825.392000
16402 16404 1 0.13986 296436.400000
16404 16405 1 0.10860 301825.392000
16404 16406 1 0.13986 296436.400000
16406 16407 1 0.10860 301825.392000
16408 16409 1 0.09450 207108.000000
16410 16411 1 0.10860 301825.392000
16411 16412 1 0.13986 296436.400000
16411 16420 1 0.13986 296436.400000
16412 16413 1 0.18850 35430.112000
16412 16414 1 0.13986 296436.400000
16413 16422 1 0.16500 119244.000000
16414 16415 1 0.10860 301825.392000
16414 16416 1 0.13986 296436.400000
16416 16417 1 0.10860 301825.392000
16416 16418 1 0.13986 296436.400000
16418 16419 1 0.10860 301825.392000
16418 16420 1 0.13986 296436.400000
16420 16421 1 0.10860 301825.392000
16422 16423 1 0.09450 207108.000000
16424 16425 1 0.10860 301825.392000
16425 16426 1 0.13986 296436.400000
16425 16434 1 0.13986 296436.400000
16426 16427 1 0.18850 35430.112000
16426 16428 1 0.13986 296436.400000
16427 16436 1 0.16500 119244.000000
16428 16429 1 0.10860 301825.392000
16428 16430 1 0.13986 296436.400000
16430 16431 1 0.10860 301825.392000
16430 16432 1 0.13986 296436.400000
16432 16433 1 0.10860 301825.392000
16432 16434 1 0.13986 296436.400000
16434 16435 1 0.10860 301825.392000
16436 16437 1 0.09450 207108.000000
16438 16439 1 0.10860 301825.392000
16439 16440 1 0.13986 296436.400000
16439 16448 1 0.13986 296436.400000
16440 16441 1 0.18850 35430.112000
16440 16442 1 0.13986 296436.400000
16441 16450 1 0.16500 119244.000000
16442 16443 1 0.10860 301825.392000
16442 16444 1 0.13986 296436.400000
16444 16445 1 0.10860 301825.392000
16444 16446 1 0.13986 296436.400000
16446 16447 1 0.10860 301825.392000
16446 16448 1 0.13986 296436.400000
16448 16449 1 0.10860 301825.392000
16450 16451 1 0.09450 207108.000000
16452 16453 1 0.10860 301825.392000
16453 16454 1 0.13986 296436.400000
16453 16462 1 0.13986 296436.400000
16454 16455 1 0.18850 35430.112000
16454 16456 1 0.13986 296436.400000
16455 16464 1 0.16500 119244.000000
16456 16457 1 0.10860 301825.392000
16456 16458 1 0.13986 296436.400000
16458 16459 1 0.10860 301825.392000
16458 16460 1 0.13986 296436.400000
16460 16461 1 0.10860 301825.392000
16460 16462 1 0.13986 296436.400000
16462 16463 1 0.10860 301825.392000
16464 16465 1 0.09450 207108.000000
16466 16467 1 0.10860 301825.392000
16467 16468 1 0.13986 296436.400000
16467 16476 1 0.13986 296436.400000
16468 16469 1 0.18850 35430.112000
16468 16470 1 0.13986 296436.400000
16469 16478 1 0.16500 119244.000000
16470 16471 1 0.10860 301825.392000
16470 16472 1 0.13986 296436.400000
16472 16473 1 0.10860 301825.392000
16472 16474 1 0.13986 296436.400000
16474 16475 1 0.10860 301825.392000
16474 16476 1 0.13986 296436.400000
16476 16477 1 0.10860 301825.392000
16478 16479 1 0.09450 207108.000000
16480 16481 1 0.10860 301825.392000
16481 16482 1 0.13986 296436.400000
16481 16490 1 0.13986 296436.400000
16482 16483 1 0.18850 35430.112000
16482 16484 1 0.13986 296436.400000
16483 16492 1 0.16500 119244.000000
16484 16485 1 0.10860 301825.392000
16484 16486 1 0.13986 296436.400000
16486 16487 1 0.10860 301825.392000
16486 16488 1 0.13986 296436.400000
16488 16489 1 0.10860 301825.392000
16488 16490 1 0.13986 296436.400000
16490 16491 1 0.10860 301825.392000
16492 16493 1 0.09450 207108.000000
16494 16495 1 0.10860 301825.392000
16495 16496 1 0.13986 296436.400000
16495 16504 1 0.13986 296436.400000
16496 16497 1 0.18850 35430.112000
16496 16498 1 0.13986 296436.400000
16497 16506 1 0.16500 119244.000000
16498 16499 1 0.10860 301825.392000
16498 16500 1 0.13986 296436.400000
16500 16501 1 0.10860 301825.392000
16500 16502 1 0.13986 296436.400000
16502 16503 1 0.10860 301825.392000
16502 16504 1 0.13986 296436.400000
16504 16505 1 0.10860 301825.392000
16506 16507 1 0.09450 207108.000000
16508 16509 1 0.10860 301825.392000
16509 16510 1 0.13986 296436.400000
16509 16518 1 0.13986 296436.400000
16510 16511 1 0.18850 35430.112000
16510 16512 1 0.13986 296436.400000
16511 16520 1 0.16500 119244.000000
16512 16513 1 0.10860 301825.392000
16512 16514 1 0.13986 296436.400000
16514 16515 1 0.10860 301825.392000
16514 16516 1 0.13986 296436.400000
16516 16517 1 0.10860 301825.392000
16516 16518 1 0.13986 296436.400000
16518 16519 1 0.10860 301825.392000
16520 16521 1 0.09450 207108.000000
16522 16523 1 0.10860 301825.392000
16523 16524 1 0.13986 296436.400000
16523 16532 1 0.13986 296436.400000
16524 16525 1 0.18850 35430.112000
16524 16526 1 0.13986 296436.400000
16525 16534 1 0.16500 119244.000000
16526 16527 1 0.10860 301825.392000
16526 16528 1 0.13986 296436.400000
16528 16529 1 0.10860 301825.392000
16528 16530 1 0.13986 296436.400000
16530 16531 1 0.10860 301825.392000
16530 16532 1 0.13986 296436.400000
16532 16533 1 0.10860 301825.392000
16534 16535 1 0.09450 207108.000000
16536 16537 1 0.10860 301825.392000
16537 16538 1 0.13986 296436.400000
16537 16546 1 0.13986 296436.400000
16538 16539 1 0.18850 35430.112000
16538 16540 1 0.13986 296436.400000
16539 16548 1 0.16500 119244.000000
16540 16541 1 0.10860 301825.392000
16540 16542 1 0.13986 296436.400000
16542 16543 1 0.10860 301825.392000
16542 16544 1 0.13986 296436.400000
16544 16545 1 0.10860 301825.392000
16544 16546 1 0.13986 296436.400000
16546 16547 1 0.10860 301825.392000
16548 16549 1 0.09450 207108.000000
16550 16551 1 0.10860 301825.392000
16551 16552 1 0.13986 296436.400000
16551 16560 1 0.13986 296436.400000
16552 16553 1 0.18850 35430.112000
16552 16554 1 0.13986 296436.400000
16553 16562 1 0.16500 119244.000000
16554 16555 1 0.10860 301825.392000
16554 16556 1 0.13986 296436.400000
16556 16557 1 0.10860 301825.392000
16556 16558 1 0.13986 296436.400000
16558 16559 1 0.10860 301825.392000
16558 16560 1 0.13986 296436.400000
16560 16561 1 0.10860 301825.392000
16562 16563 1 0.09450 207108.000000
16564 16565 1 0.10860 301825.392000
16565 16566 1 0.13986 296436.400000
16565 16574 1 0.13986 296436.400000
16566 16567 1 0.18850 35430.112000
16566 16568 1 0.13986 296436.400000
16567 16576 1 0.16500 119244.000000
16568 16569 1 0.10860 301825.392000
16568 16570 1 0.13986 296436.400000
16570 16571 1 0.10860 301825.392000
16570 16572 1 0.13986 296436.400000
16572 16573 1 0.10860 301825.392000
16572 16574 1 0.13986 296436.400000
16574 16575 1 0.10860 301825.392000
16576 16577 1 0.09450 207108.000000
16578 16579 1 0.10860 301825.392000
16579 16580 1 0.13986 296436.400000
16579 16588 1 0.13986 296436.400000
16580 16581 1 0.18850 35430.112000
16580 16582 1 0.13986 296436.400000
16581 16590 1 0.16500 119244.000000
16582 16583 1 0.10860 301825.392000
16582 16584 1 0.13986 296436.400000
16584 16585 1 0.10860 301825.392000
16584 16586 1 0.13986 296436.400000
16586 16587 1 0.10860 301825.392000
16586 16588 1 0.13986 296436.400000
16588 16589 1 0.10860 301825.392000
16590 16591 1 0.09450 207108.000000
16592 16593 1 0.10860 301825.392000
16593 16594 1 0.13986 296436.400000
16593 16602 1 0.13986 296436.400000
16594 16595 1 0.18850 35430.112000
16594 16596 1 0.13986 296436.400000
16595 16604 1 0.16500 119244.000000
16596 16597 1 0.10860 301825.392000
16596 16598 1 0.13986 296436.400000
16598 16599 1 0.10860 301825.392000
16598 16600 1 0.13986 296436.400000
16600 16601 1 0.10860 301825.392000
16600 16602 1 0.13986 296436.400000
16602 16603 1 0.10860 301825.392000
16604 16605 1 0.09450 207108.000000
16606 16607 1 0.10860 301825.392000
16607 16608 1 0.13986 296436.400000
16607 16616 1 0.13986 296436.400000
16608 16609 1 0.18850 35430.112000
16608 16610 1 0.13986 296436.400000
16609 16618 1 0.16500 119244.000000
16610 16611 1 0.10860 301825.392000
16610 16612 1 0.13986 296436.400000
16612 16613 1 0.10860 301825.392000
16612 16614 1 0.13986 296436.400000
16614 16615 1 0.10860 301825.392000
16614 16616 1 0.13986 296436.400000
16616 16617 1 0.10860 301825.392000
16618 16619 1 0.09450 207108.000000
16620 16621 1 0.10860 301825.392000
16621 16622 1 0.13986 296436.400000
16621 16630 1 0.13986 296436.400000
16622 16623 1 0.18850 35430.112000
16622 16624 1 0.13986 296436.400000
16623 16632 1 0.16500 119244.000000
16624 16625 1 0.10860 301825.392000
16624 16626 1 0.13986 296436.400000
16626 16627 1 0.10860 301825.392000
16626 16628 1 0.13986 296436.400000
16628 16629 1 0.10860 301825.392000
16628 16630 1 0.13986 296436.400000
16630 16631 1 0.10860 301825.392000
16632 16633 1 0.09450 207108.000000
16634 16635 1 0.10860 301825.392000
16635 16636 1 0.13986 296436.400000
16635 16644 1 0.13986 296436.400000
16636 16637 1 0.18850 35430.112000
16636 16638 1 0.13986 296436.400000
16637 16646 1 0.16500 119244.000000
16638 16639 1 0.10860 301825.392000
16638 16640 1 0.13986 296436.400000
16640 16641 1 0.10860 301825.392000
16640 16642 1 0.13986 296436.400000
16642 16643 1 0.10860 301825.392000
16642 16644 1 0.13986 296436.400000
16644 16645 1 0.10860 301825.392000
16646 16647 1 0.09450 207108.000000
16648 16649 1 0.10860 301825.392000
16649 16650 1 0.13986 296436.400000
16649 16658 1 0.13986 296436.400000
16650 16651 1 0.18850 35430.112000
16650 16652 1 0.13986 296436.400000
16651 16660 1 0.16500 119244.000000
16652 16653 1 0.10860 301825.392000
16652 16654 1 0.13986 296436.400000
16654 16655 1 0.10860 301825.392000
16654 16656 1 0.13986 296436.400000
16656 16657 1 0.10860 301825.392000
16656 16658 1 0.13986 296436.400000
16658 16659 1 0.10860 301825.392000
16660 16661 1 0.09450 207108.000000
16662 16663 1 0.10860 301825.392000
16663 16664 1 0.13986 296436.400000
16663 16672 1 0.13986 296436.400000
16664 16665 1 0.18850 35430.112000
16664 16666 1 0.13986 296436.400000
16665 16674 1 0.16500 119244.000000
16666 16667 1 0.10860 301825.392000
16666 16668 1 0.13986 296436.400000
16668 16669 1 0.10860 301825.392000
16668 16670 1 0.13986 296436.400000
16670 16671 1 0.10860 301825.392000
16670 16672 1 0.13986 296436.400000
16672 16673 1 0.10860 301825.392000
16674 16675 1 0.09450 207108.000000
16676 16677 1 0.10860 301825.392000
16677 16678 1 0.13986 296436.400000
16677 16686 1 0.13986 296436.400000
16678 16679 1 0.18850 35430.112000
16678 16680 1 0.13986 296436.400000
16679 16688 1 0.16500 119244.000000
16680 16681 1 0.10860 301825.392000
16680 16682 1 0.13986 296436.400000
16682 16683 1 0.10860 301825.392000
16682 16684 1 0.13986 296436.400000
16684 16685 1 0.10860 301825.392000
16684 16686 1 0.13986 296436.400000
16686 16687 1 0.10860 301825.392000
16688 16689 1 0.09450 207108.000000
16690 16691 1 0.10860 301825.392000
16691 16692 1 0.13986 296436.400000
16691 16700 1 0.13986 296436.400000
16692 16693 1 0.18850 35430.112000
16692 16694 1 0.13986 296436.400000
16693 16702 1 0.16500 119244.000000
16694 16695 1 0.10860 301825.392000
16694 16696 1 0.13986 296436.400000
16696 16697 1 0.10860 301825.392000
16696 16698 1 0.13986 296436.400000
16698 16699 1 0.10860 301825.392000
16698 16700 1 0.13986 296436.400000
16700 16701 1 0.10860 301825.392000
16702 16703 1 0.09450 207108.000000
16704 16705 1 0.10860 301825.392000
16705 16706 1 0.13986 296436.400000
16705 16714 1 0.13986 296436.400000
16706 16707 1 0.18850 35430.112000
16706 16708 1 0.13986 296436.400000
16707 16716 1 0.16500 119244.000000
16708 16709 1 0.10860 301825.392000
16708 16710 1 0.13986 296436.400000
16710 16711 1 0.10860 301825.392000
16710 16712 1 0.13986 296436.400000
16712 16713 1 0.10860 301825.392000
16712 16714 1 0.13986 296436.400000
16714 16715 1 0.10860 301825.392000
16716 16717 1 0.09450 207108.000000
16718 16719 1 0.10860 301825.392000
16719 16720 1 0.13986 296436.400000
16719 16728 1 0.13986 296436.400000
16720 16721 1 0.18850 35430.112000
16720 16722 1 0.13986 296436.400000
16721 16730 1 0.16500 119244.000000
16722 16723 1 0.10860 301825.392000
16722 16724 1 0.13986 296436.400000
16724 16725 1 0.10860 301825.392000
16724 16726 1 0.13986 296436.400000
16726 16727 1 0.10860 301825.392000
16726 16728 1 0.13986 296436.400000
16728 16729 1 0.10860 301825.392000
16730 16731 1 0.09450 207108.000000
16732 16733 1 0.10860 301825.392000
16733 16734 1 0.13986 296436.400000
16733 16742 1 0.13986 296436.400000
16734 16735 1 0.18850 35430.112000
16734 16736 1 0.13986 296436.400000
16735 16744 1 0.16500 119244.000000
16736 16737 1 0.10860 301825.392000
16736 16738 1 0.13986 296436.400000
16738 16739 1 0.10860 301825.392000
16738 16740 1 0.13986 296436.400000
16740 16741 1 0.10860 301825.392000
16740 16742 1 0.13986 296436.400000
16742 16743 1 0.10860 301825.392000
16744 16745 1 0.09450 207108.000000
16746 16747 1 0.10860 301825.392000
16747 16748 1 0.13986 296436.400000
16747 16756 1 0.13986 296436.400000
16748 16749 1 0.18850 35430.112000
16748 16750 1 0.13986 296436.400000
16749 16758 1 0.16500 119244.000000
16750 16751 1 0.10860 301825.392000
16750 16752 1 0.13986 296436.400000
16752 16753 1 0.10860 301825.392000
16752 16754 1 0.13986 296436.400000
16754 16755 1 0.10860 301825.392000
16754 16756 1 0.13986 296436.400000
16756 16757 1 0.10860 301825.392000
16758 16759 1 0.09450 207108.000000
16760 16761 1 0.10860 301825.392000
16761 16762 1 0.13986 296436.400000
16761 16770 1 0.13986 296436.400000
16762 16763 1 0.18850 35430.112000
16762 16764 1 0.13986 296436.400000
16763 16772 1 0.16500 119244.000000
16764 16765 1 0.10860 301825.392000
16764 16766 1 0.13986 296436.400000
16766 16767 1 0.10860 301825.392000
16766 16768 1 0.13986 296436.400000
16768 16769 1 0.10860 301825.392000
16768 16770 1 0.13986 296436.400000
16770 16771 1 0.10860 301825.392000
16772 16773 1 0.09450 207108.000000
16774 16775 1 0.10860 301825.392000
16775 16776 1 0.13986 296436.400000
16775 16784 1 0.13986 296436.400000
16776 16777 1 0.18850 35430.112000
16776 16778 1 0.13986 296436.400000
16777 16786 1 0.16500 119244.000000
16778 16779 1 0.10860 301825.392000
16778 16780 1 0.13986 296436.400000
16780 16781 1 0.10860 301825.392000
16780 16782 1 0.13986 296436.400000
16782 16783 1 0.10860 301825.392000
16782 16784 1 0.13986 296436.400000
16784 16785 1 0.10860 301825.392000
16786 16787 1 0.09450 207108.000000
16788 16789 1 0.10860 301825.392000
16789 16790 1 0.13986 296436.400000
16789 16798 1 0.13986 296436.400000
16790 16791 1 0.18850 35430.112000
16790 16792 1 0.13986 296436.400000
16791 16800 1 0.16500 119244.000000
16792 16793 1 0.10860 301825.392000
16792 16794 1 0.13986 296436.400000
16794 16795 1 0.10860 301825.392000
16794 16796 1 0.13986 296436.400000
16796 16797 1 0.10860 301825.392000
16796 16798 1 0.13986 296436.400000
16798 16799 1 0.10860 301825.392000
16800 16801 1 0.09450 207108.000000
16802 16803 1 0.10860 301825.392000
16803 16804 1 0.13986 296436.400000
16803 16812 1 0.13986 296436.400000
16804 16805 1 0.18850 35430.112000
16804 16806 1 0.13986 296436.400000
16805 16814 1 0.16500 119244.000000
16806 16807 1 0.10860 301825.392000
16806 16808 1 0.13986 296436.400000
16808 16809 1 0.10860 301825.392000
16808 16810 1 0.13986 296436.400000
16810 16811 1 0.10860 301825.392000
16810 16812 1 0.13986 296436.400000
16812 16813 1 0.10860 301825.392000
16814 16815 1 0.09450 207108.000000
16816 16817 1 0.10860 301825.392000
16817 16818 1 0.13986 296436.400000
16817 16826 1 0.13986 296436.400000
16818 16819 1 0.18850 35430.112000
16818 16820 1 0.13986 296436.400000
16819 16828 1 0.16500 119244.000000
16820 16821 1 0.10860 301825.392000
16820 16822 1 0.13986 296436.400000
16822 16823 1 0.10860 301825.392000
16822 16824 1 0.13986 296436.400000
16824 16825 1 0.10860 301825.392000
16824 16826 1 0.13986 296436.400000
16826 16827 1 0.10860 301825.392000
16828 16829 1 0.09450 207108.000000
16830 16831 1 0.10860 301825.392000
16831 16832 1 0.13986 296436.400000
16831 16840 1 0.13986 296436.400000
16832 16833 1 0.18850 35430.112000
16832 16834 1 0.13986 296436.400000
16833 16842 1 0.16500 119244.000000
16834 16835 1 0.10860 301825.392000
16834 16836 1 0.13986 296436.400000
16836 16837 1 0.10860 301825.392000
16836 16838 1 0.13986 296436.400000
16838 16839 1 0.10860 301825.392000
16838 16840 1 0.13986 296436.400000
16840 16841 1 0.10860 301825.392000
16842 16843 1 0.09450 207108.000000
16844 16845 1 0.10860 301825.392000
16845 16846 1 0.13986 296436.400000
16845 16854 1 0.13986 296436.400000
16846 16847 1 0.18850 35430.112000
16846 16848 1 0.13986 296436.400000
16847 16856 1 0.16500 119244.000000
16848 16849 1 0.10860 301825.392000
16848 16850 1 0.13986 296436.400000
16850 16851 1 0.10860 301825.392000
16850 16852 1 0.13986 296436.400000
16852 16853 1 0.10860 301825.392000
16852 16854 1 0.13986 296436.400000
16854 16855 1 0.10860 301825.392000
16856 16857 1 0.09450 207108.000000
16858 16859 1 0.10860 301825.392000
16859 16860 1 0.13986 296436.400000
16859 16868 1 0.13986 296436.400000
16860 16861 1 0.18850 35430.112000
16860 16862 1 0.13986 296436.400000
16861 16870 1 0.16500 119244.000000
16862 16863 1 0.10860 301825.392000
16862 16864 1 0.13986 296436.400000
16864 16865 1 0.10860 301825.392000
16864 16866 1 0.13986 296436.400000
16866 16867 1 0.10860 301825.392000
16866 16868 1 0.13986 296436.400000
16868 16869 1 0.10860 301825.392000
16870 16871 1 0.09450 207108.000000
16872 16873 1 0.10860 301825.392000
16873 16874 1 0.13986 296436.400000
16873 16882 1 0.13986 296436.400000
16874 16875 1 0.18850 35430.112000
16874 16876 1 0.13986 296436.400000
16875 16884 1 0.16500 119244.000000
16876 16877 1 0.10860 301825.392000
16876 16878 1 0.13986 296436.400000
16878 16879 1 0.10860 301825.392000
16878 16880 1 0.13986 296436.400000
16880 16881 1 0.10860 301825.392000
16880 16882 1 0.13986 296436.400000
16882 16883 1 0.10860 301825.392000
16884 16885 1 0.09450 207108.000000
16886 16887 1 0.10860 301825.392000
16887 16888 1 0.13986 296436.400000
16887 16896 1 0.13986 296436.400000
16888 16889 1 0.18850 35430.112000
16888 16890 1 0.13986 296436.400000
16889 16898 1 0.16500 119244.000000
16890 16891 1 0.10860 301825.392000
16890 16892 1 0.13986 296436.400000
16892 16893 1 0.10860 301825.392000
16892 16894 1 0.13986 296436.400000
16894 16895 1 0.10860 301825.392000
16894 16896 1 0.13986 296436.400000
16896 16897 1 0.10860 301825.392000
16898 16899 1 0.09450 207108.000000
16900 16901 1 0.10860 301825.392000
16901 16902 1 0.13986 296436.400000
16901 16910 1 0.13986 296436.400000
16902 16903 1 0.18850 35430.112000
16902 16904 1 0.13986 296436.400000
16903 16912 1 0.16500 119244.000000
16904 16905 1 0.10860 301825.392000
16904 16906 1 0.13986 296436.400000
16906 16907 1 0.10860 301825.392000
16906 16908 1 0.13986 296436.400000
16908 16909 1 0.10860 301825.392000
16908 16910 1 0.13986 296436.400000
16910 16911 1 0.10860 301825.392000
16912 16913 1 0.09450 207108.000000
16914 16915 1 0.10860 301825.392000
16915 16916 1 0.13986 296436.400000
16915 16924 1 0.13986 296436.400000
16916 16917 1 0.18850 35430.112000
16916 16918 1 0.13986 296436.400000
16917 16926 1 0.16500 119244.000000
16918 16919 1 0.10860 301825.392000
16918 16920 1 0.13986 296436.400000
16920 16921 1 0.10860 301825.392000
16920 16922 1 0.13986 296436.400000
16922 16923 1 0.10860 301825.392000
16922 16924 1 0.13986 296436.400000
16924 16925 1 0.10860 301825.392000
16926 16927 1 0.09450 207108.000000
16928 16929 1 0.10860 301825.392000
16929 16930 1 0.13986 296436.400000
16929 16938 1 0.13986 296436.400000
16930 16931 1 0.18850 35430.112000
16930 16932 1 0.13986 296436.400000
16931 16940 1 0.16500 119244.000000
16932 16933 1 0.10860 301825.392000
16932 16934 1 0.13986 296436.400000
16934 16935 1 0.10860 301825.392000
16934 16936 1 0.13986 296436.400000
16936 16937 1 0.10860 301825.392000
16936 16938 1 0.13986 296436.400000
16938 16939 1 0.10860 301825.392000
16940 16941 1 0.09450 207108.000000
16942 16943 1 0.10860 301825.392000
16943 16944 1 0.13986 296436.400000
16943 16952 1 0.13986 296436.400000
16944 16945 1 0.18850 35430.112000
16944 16946 1 0.13986 296436.400000
16945 16954 1 0.16500 119244.000000
16946 16947 1 0.10860 301825.392000
16946 16948 1 0.13986 296436.400000
16948 16949 1 0.10860 301825.392000
16948 16950 1 0.13986 296436.400000
16950 16951 1 0.10860 301825.392000
16950 16952 1 0.13986 296436.400000
16952 16953 1 0.10860 301825.392000
16954 16955 1 0.09450 207108.000000
16956 16957 1 0.10860 301825.392000
16957 16958 1 0.13986 296436.400000
16957 16966 1 0.13986 296436.400000
16958 16959 1 0.18850 35430.112000
16958 16960 1 0.13986 296436.400000
16959 16968 1 0.16500 119244.000000
16960 16961 1 0.10860 301825.392000
16960 16962 1 0.13986 296436.400000
16962 16963 1 0.10860 301825.392000
16962 16964 1 0.13986 296436.400000
16964 16965 1 0.10860 301825.392000
16964 16966 1 0.13986 296436.400000
16966 16967 1 0.10860 301825.392000
16968 16969 1 0.09450 207108.000000
16970 16971 1 0.10860 301825.392000
16971 16972 1 0.13986 296436.400000
16971 16980 1 0.13986 296436.400000
16972 16973 1 0.18850 35430.112000
16972 16974 1 0.13986 296436.400000
16973 16982 1 0.16500 119244.000000
16974 16975 1 0.10860 301825.392000
16974 16976 1 0.13986 296436.400000
16976 16977 1 0.10860 301825.392000
16976 16978 1 0.13986 296436.400000
16978 16979 1 0.10860 301825.392000
16978 16980 1 0.13986 296436.400000
16980 16981 1 0.10860 301825.392000
16982 16983 1 0.09450 207108.000000
16984 16985 1 0.10860 301825.392000
16985 16986 1 0.13986 296436.400000
16985 16994 1 0.13986 296436.400000
16986 16987 1 0.18850 35430.112000
16986 16988 1 0.13986 296436.400000
16987 16996 1 0.16500 119244.000000
16988 16989 1 0.10860 301825.392000
16988 16990 1 0.13986 296436.400000
16990 16991 1 0.10860 301825.392000
16990 16992 1 0.13986 296436.400000
16992 16993 1 0.10860 301825.392000
16992 16994 1 0.13986 296436.400000
16994 16995 1 0.10860 301825.392000
16996 16997 1 0.09450 207108.000000
16998 16999 1 0.10860 301825.392000
16999 17000 1 0.13986 296436.400000
16999 17008 1 0.13986 296436.400000
17000 17001 1 0.18850 35430.112000
17000 17002 1 0.13986 296436.400000
17001 17010 1 0.16500 119244.000000
17002 17003 1 0.10860 301825.392000
17002 17004 1 0.13986 296436.400000
17004 17005 1 0.10860 301825.392000
17004 17006 1 0.13986 296436.400000
17006 17007 1 0.10860 301825.392000
17006 17008 1 0.13986 296436.400000
17008 17009 1 0.10860 301825.392000
17010 17011 1 0.09450 207108.000000
17012 17013 1 0.10860 301825.392000
17013 17014 1 0.13986 296436.400000
17013 17022 1 0.13986 296436.400000
17014 17015 1 0.18850 35430.112000
17014 17016 1 0.13986 296436.400000
17015 17024 1 0.16500 119244.000000
17016 17017 1 0.10860 301825.392000
17016 17018 1 0.13986 296436.400000
17018 17019 1 0.10860 301825.392000
17018 17020 1 0.13986 296436.400000
17020 17021 1 0.10860 301825.392000
17020 17022 1 0.13986 296436.400000
17022 17023 1 0.10860 301825.392000
17024 17025 1 0.09450 207108.000000
17026 17027 1 0.10860 301825.392000
17027 17028 1 0.13986 296436.400000
17027 17036 1 0.13986 296436.400000
17028 17029 1 0.18850 35430.112000
17028 17030 1 0.13986 296436.400000
17029 17038 1 0.16500 119244.000000
17030 17031 1 0.10860 301825.392000
17030 17032 1 0.13986 296436.400000
17032 17033 1 0.10860 301825.392000
17032 17034 1 0.13986 296436.400000
17034 17035 1 0.10860 301825.392000
17034 17036 1 0.13986 296436.400000
17036 17037 1 0.10860 301825.392000
17038 17039 1 0.09450 207108.000000
17040 17041 1 0.10860 301825.392000
17041 17042 1 0.13986 296436.400000
17041 17050 1 0.13986 296436.400000
17042 17043 1 0.18850 35430.112000
17042 17044 1 0.13986 296436.400000
17043 17052 1 0.16500 119244.000000
17044 17045 1 0.10860 301825.392000
17044 17046 1 0.13986 296436.400000
17046 17047 1 0.10860 301825.392000
17046 17048 1 0.13986 296436.400000
17048 17049 1 0.10860 301825.392000
17048 17050 1 0.13986 296436.400000
17050 17051 1 0.10860 301825.392000
17052 17053 1 0.09450 207108.000000
17054 17055 1 0.10860 301825.392000
17055 17056 1 0.13986 296436.400000
17055 17064 1 0.13986 296436.400000
17056 17057 1 0.18850 35430.112000
17056 17058 1 0.13986 296436.400000
17057 17066 1 0.16500 119244.000000
17058 17059 1 0.10860 301825.392000
17058 17060 1 0.13986 296436.400000
17060 17061 1 0.10860 301825.392000
17060 17062 1 0.13986 296436.400000
17062 17063 1 0.10860 301825.392000
17062 17064 1 0.13986 296436.400000
17064 17065 1 0.10860 301825.392000
17066 17067 1 0.09450 207108.000000
17068 17069 1 0.10860 301825.392000
17069 17070 1 0.13986 296436.400000
17069 17078 1 0.13986 296436.400000
17070 17071 1 0.18850 35430.112000
17070 17072 1 0.13986 296436.400000
17071 17080 1 0.16500 119244.000000
17072 17073 1 0.10860 301825.392000
17072 17074 1 0.13986 296436.400000
17074 17075 1 0.10860 301825.392000
17074 17076 1 0.13986 296436.400000
17076 17077 1 0.10860 301825.392000
17076 17078 1 0.13986 296436.400000
17078 17079 1 0.10860 301825.392000
17080 17081 1 0.09450 207108.000000
17082 17083 1 0.10860 301825.392000
17083 17084 1 0.13986 296436.400000
17083 17092 1 0.13986 296436.400000
17084 17085 1 0.18850 35430.112000
17084 17086 1 0.13986 296436.400000
17085 17094 1 0.16500 119244.000000
17086 17087 1 0.10860 301825.392000
17086 17088 1 0.13986 296436.400000
17088 17089 1 0.10860 301825.392000
17088 17090 1 0.13986 296436.400000
17090 17091 1 0.10860 301825.392000
17090 17092 1 0.13986 296436.400000
17092 17093 1 0.10860 301825.392000
17094 17095 1 0.09450 207108.000000
17096 17097 1 0.10860 301825.392000
17097 17098 1 0.13986 296436.400000
17097 17106 1 0.13986 296436.400000
17098 17099 1 0.18850 35430.112000
17098 17100 1 0.13986 296436.400000
17099 17108 1 0.16500 119244.000000
17100 17101 1 0.10860 301825.392000
17100 17102 1 0.13986 296436.400000
17102 17103 1 0.10860 301825.392000
17102 17104 1 0.13986 296436.400000
17104 17105 1 0.10860 301825.392000
17104 17106 1 0.13986 296436.400000
17106 17107 1 0.10860 301825.392000
17108 17109 1 0.09450 207108.000000
17110 17111 1 0.10860 301825.392000
17111 17112 1 0.13986 296436.400000
17111 17120 1 0.13986 296436.400000
17112 17113 1 0.18850 35430.112000
17112 17114 1 0.13986 296436.400000
17113 17122 1 0.16500 119244.000000
17114 17115 1 0.10860 301825.392000
17114 17116 1 0.13986 296436.400000
17116 17117 1 0.10860 301825.392000
17116 17118 1 0.13986 296436.400000
17118 17119 1 0.10860 301825.392000
17118 17120 1 0.13986 296436.400000
17120 17121 1 0.10860 301825.392000
17122 17123 1 0.09450 207108.000000
17124 17125 1 0.10860 301825.392000
17125 17126 1 0.13986 296436.400000
17125 17134 1 0.13986 296436.400000
17126 17127 1 0.18850 35430.112000
17126 17128 1 0.13986 296436.400000
17127 17136 1 0.16500 119244.000000
17128 17129 1 0.10860 301825.392000
17128 17130 1 0.13986 296436.400000
17130 17131 1 0.10860 301825.392000
17130 17132 1 0.13986 296436.400000
17132 17133 1 0.10860 301825.392000
17132 17134 1 0.13986 296436.400000
17134 17135 1 0.10860 301825.392000
17136 17137 1 0.09450 207108.000000
17138 17139 1 0.10860 301825.392000
17139 17140 1 0.13986 296436.400000
17139 17148 1 0.13986 296436.400000
17140 17141 1 0.18850 35430.112000
17140 17142 1 0.13986 296436.400000
17141 17150 1 0.16500 119244.000000
17142 17143 1 0.10860 301825.392000
17142 17144 1 0.13986 296436.400000
17144 17145 1 0.10860 301825.392000
17144 17146 1 0.13986 296436.400000
17146 17147 1 0.10860 301825.392000
17146 17148 1 0.13986 296436.400000
17148 17149 1 0.10860 301825.392000
17150 17151 1 0.09450 207108.000000
17152 17153 1 0.10860 301825.392000
17153 17154 1 0.13986 296436.400000
17153 17162 1 0.13986 296436.400000
17154 17155 1 0.18850 35430.112000
17154 17156 1 0.13986 296436.400000
17155 17164 1 0.16500 119244.000000
17156 17157 1 0.10860 301825.392000
17156 17158 1 0.13986 296436.400000
17158 17159 1 0.10860 301825.392000
17158 17160 1 0.13986 296436.400000
17160 17161 1 0.10860 301825.392000
17160 17162 1 0.13986 296436.400000
17162 17163 1 0.10860 301825.392000
17164 17165 1 0.09450 207108.000000
17166 17167 1 0.10860 301825.392000
17167 17168 1 0.13986 296436.400000
17167 17176 1 0.13986 296436.400000
17168 17169 1 0.18850 35430.112000
17168 17170 1 0.13986 296436.400000
17169 17178 1 0.16500 119244.000000
17170 17171 1 0.10860 301825.392000
17170 17172 1 0.13986 296436.400000
17172 17173 1 0.10860 301825.392000
17172 17174 1 0.13986 296436.400000
17174 17175 1 0.10860 301825.392000
17174 17176 1 0.13986 296436.400000
17176 17177 1 0.10860 301825.392000
17178 17179 1 0.09450 207108.000000
17180 17181 1 0.10860 301825.392000
17181 17182 1 0.13986 296436.400000
17181 17190 1 0.13986 296436.400000
17182 17183 1 0.18850 35430.112000
17182 17184 1 0.13986 296436.400000
17183 17192 1 0.16500 119244.000000
17184 17185 1 0.10860 301825.392000
17184 17186 1 0.13986 296436.400000
17186 17187 1 0.10860 301825.392000
17186 17188 1 0.13986 296436.400000
17188 17189 1 0.10860 301825.392000
17188 17190 1 0.13986 296436.400000
17190 17191 1 0.10860 301825.392000
17192 17193 1 0.09450 207108.000000
17194 17195 1 0.10860 301825.392000
17195 17196 1 0.13986 296436.400000
17195 17204 1 0.13986 296436.400000
17196 17197 1 0.18850 35430.112000
17196 17198 1 0.13986 296436.400000
17197 17206 1 0.16500 119244.000000
17198 17199 1 0.10860 301825.392000
17198 17200 1 0.13986 296436.400000
17200 17201 1 0.10860 301825.392000
17200 17202 1 0.13986 296436.400000
17202 17203 1 0.10860 301825.392000
17202 17204 1 0.13986 296436.400000
17204 17205 1 0.10860 301825.392000
17206 17207 1 0.09450 207108.000000
17208 17209 1 0.10860 301825.392000
17209 17210 1 0.13986 296436.400000
17209 17218 1 0.13986 296436.400000
17210 17211 1 0.18850 35430.112000
17210 17212 1 0.13986 296436.400000
17211 17220 1 0.16500 119244.000000
17212 17213 1 0.10860 301825.392000
17212 17214 1 0.13986 296436.400000
17214 17215 1 0.10860 301825.392000
17214 17216 1 0.13986 296436.400000
17216 17217 1 0.10860 301825.392000
17216 17218 1 0.13986 296436.400000
17218 17219 1 0.10860 301825.392000
17220 17221 1 0.09450 207108.000000
17222 17223 1 0.10860 301825.392000
17223 17224 1 0.13986 296436.400000
17223 17232 1 0.13986 296436.400000
17224 17225 1 0.18850 35430.112000
17224 17226 1 0.13986 296436.400000
17225 17234 1 0.16500 119244.000000
17226 17227 1 0.10860 301825.392000
17226 17228 1 0.13986 296436.400000
17228 17229 1 0.10860 301825.392000
17228 17230 1 0.13986 296436.400000
17230 17231 1 0.10860 301825.392000
17230 17232 1 0.13986 296436.400000
17232 17233 1 0.10860 301825.392000
17234 17235 1 0.09450 207108.000000
17236 17237 1 0.10860 301825.392000
17237 17238 1 0.13986 296436.400000
17237 17246 1 0.13986 296436.400000
17238 17239 1 0.18850 35430.112000
17238 17240 1 0.13986 296436.400000
17239 17248 1 0.16500 119244.000000
17240 17241 1 0.10860 301825.392000
17240 17242 1 0.13986 296436.400000
17242 17243 1 0.10860 301825.392000
17242 17244 1 0.13986 296436.400000
17244 17245 1 0.10860 301825.392000
17244 17246 1 0.13986 296436.400000
17246 17247 1 0.10860 301825.392000
17248 17249 1 0.09450 207108.000000
17250 17251 1 0.10860 301825.392000
17251 17252 1 0.13986 296436.400000
17251 17260 1 0.13986 296436.400000
17252 17253 1 0.18850 35430.112000
17252 17254 1 0.13986 296436.400000
17253 17262 1 0.16500 119244.000000
17254 17255 1 0.10860 301825.392000
17254 17256 1 0.13986 296436.400000
17256 17257 1 0.10860 301825.392000
17256 17258 1 0.13986 296436.400000
17258 17259 1 0.10860 301825.392000
17258 17260 1 0.13986 296436.400000
17260 17261 1 0.10860 301825.392000
17262 17263 1 0.09450 207108.000000
17264 17265 1 0.10860 301825.392000
17265 17266 1 0.13986 296436.400000
17265 17274 1 0.13986 296436.400000
17266 17267 1 0.18850 35430.112000
17266 17268 1 0.13986 296436.400000
17267 17276 1 0.16500 119244.000000
17268 17269 1 0.10860 301825.392000
17268 17270 1 0.13986 296436.400000
17270 17271 1 0.10860 301825.392000
17270 17272 1 0.13986 296436.400000
17272 17273 1 0.10860 301825.392000
17272 17274 1 0.13986 296436.400000
17274 17275 1 0.10860 301825.392000
17276 17277 1 0.09450 207108.000000
17278 17279 1 0.10860 301825.392000
17279 17280 1 0.13986 296436.400000
17279 17288 1 0.13986 296436.400000
17280 17281 1 0.18850 35430.112000
17280 17282 1 0.13986 296436.400000
17281 17290 1 0.16500 119244.000000
17282 17283 1 0.10860 301825.392000
17282 17284 1 0.13986 296436.400000
17284 17285 1 0.10860 301825.392000
17284 17286 1 0.13986 296436.400000
17286 17287 1 0.10860 301825.392000
17286 17288 1 0.13986 296436.400000
17288 17289 1 0.10860 301825.392000
17290 17291 1 0.09450 207108.000000
17292 17293 1 0.10860 301825.392000
17293 17294 1 0.13986 296436.400000
17293 17302 1 0.13986 296436.400000
17294 17295 1 0.18850 35430.112000
17294 17296 1 0.13986 296436.400000
17295 17304 1 0.16500 119244.000000
17296 17297 1 0.10860 301825.392000
17296 17298 1 0.13986 296436.400000
17298 17299 1 0.10860 301825.392000
17298 17300 1 0.13986 296436.400000
17300 17301 1 0.10860 301825.392000
17300 17302 1 0.13986 296436.400000
17302 17303 1 0.10860 301825.392000
17304 17305 1 0.09450 207108.000000
17306 17307 1 0.10860 301825.392000
17307 17308 1 0.13986 296436.400000
17307 17316 1 0.13986 296436.400000
17308 17309 1 0.18850 35430.112000
17308 17310 1 0.13986 296436.400000
17309 17318 1 0.16500 119244.000000
17310 17311 1 0.10860 301825.392000
17310 17312 1 0.13986 296436.400000
17312 17313 1 0.10860 301825.392000
17312 17314 1 0.13986 296436.400000
17314 17315 1 0.10860 301825.392000
17314 17316 1 0.13986 296436.400000
17316 17317 1 0.10860 301825.392000
17318 17319 1 0.09450 207108.000000
17320 17321 1 0.10860 301825.392000
17321 17322 1 0.13986 296436.400000
17321 17330 1 0.13986 296436.400000
17322 17323 1 0.18850 35430.112000
17322 17324 1 0.13986 296436.400000
17323 17332 1 0.16500 119244.000000
17324 17325 1 0.10860 301825.392000
17324 17326 1 0.13986 296436.400000
17326 17327 1 0.10860 301825.392000
17326 17328 1 0.13986 296436.400000
17328 17329 1 0.10860 301825.392000
17328 17330 1 0.13986 296436.400000
17330 17331 1 0.10860 301825.392000
17332 17333 1 0.09450 207108.000000
17334 17335 1 0.10860 301825.392000
17335 17336 1 0.13986 296436.400000
17335 17344 1 0.13986 296436.400000
17336 17337 1 0.18850 35430.112000
17336 17338 1 0.13986 296436.400000
17337 17346 1 0.16500 119244.000000
17338 17339 1 0.10860 301825.392000
17338 17340 1 0.13986 296436.400000
17340 17341 1 0.10860 301825.392000
17340 17342 1 0.13986 296436.400000
17342 17343 1 0.10860 301825.392000
17342 17344 1 0.13986 296436.400000
17344 17345 1 0.10860 301825.392000
17346 17347 1 0.09450 207108.000000
17348 17349 1 0.10860 301825.392000
17349 17350 1 0.13986 296436.400000
17349 17358 1 0.13986 296436.400000
17350 17351 1 0.18850 35430.112000
17350 17352 1 0.13986 296436.400000
17351 17360 1 0.16500 119244.000000
17352 17353 1 0.10860 301825.392000
17352 17354 1 0.13986 296436.400000
17354 17355 1 0.10860 301825.392000
17354 17356 1 0.13986 296436.400000
17356 17357 1 0.10860 301825.392000
17356 17358 1 0.13986 296436.400000
17358 17359 1 0.10860 301825.392000
17360 17361 1 0.09450 207108.000000
17362 17363 1 0.10860 301825.392000
17363 17364 1 0.13986 296436.400000
17363 17372 1 0.13986 296436.400000
17364 17365 1 0.18850 35430.112000
17364 17366 1 0.13986 296436.400000
17365 17374 1 0.16500 119244.000000
17366 17367 1 0.10860 301825.392000
17366 17368 1 0.13986 296436.400000
17368 17369 1 0.10860 301825.392000
17368 17370 1 0.13986 296436.400000
17370 17371 1 0.10860 301825.392000
17370 17372 1 0.13986 296436.400000
17372 17373 1 0.10860 301825.392000
17374 17375 1 0.09450 207108.000000
17376 17377 1 0.10860 301825.392000
17377 17378 1 0.13986 296436.400000
17377 17386 1 0.13986 296436.400000
17378 17379 1 0.18850 35430.112000
17378 17380 1 0.13986 296436.400000
17379 17388 1 0.16500 119244.000000
17380 17381 1 0.10860 301825.392000
17380 17382 1 0.13986 296436.400000
17382 17383 1 0.10860 301825.392000
17382 17384 1 0.13986 296436.400000
17384 17385 1 0.10860 301825.392000
17384 17386 1 0.13986 296436.400000
17386 17387 1 0.10860 301825.392000
17388 17389 1 0.09450 207108.000000
17390 17391 1 0.10860 301825.392000
17391 17392 1 0.13986 296436.400000
17391 17400 1 0.13986 296436.400000
17392 17393 1 0.18850 35430.112000
17392 17394 1 0.13986 296436.400000
17393 17402 1 0.16500 119244.000000
17394 17395 1 0.10860 301825.392000
17394 17396 1 0.13986 296436.400000
17396 17397 1 0.10860 301825.392000
17396 17398 1 0.13986 296436.400000
17398 17399 1 0.10860 301825.392000
17398 17400 1 0.13986 296436.400000
17400 17401 1 0.10860 301825.392000
17402 17403 1 0.09450 207108.000000
17404 17405 1 0.10860 301825.392000
17405 17406 1 0.13986 296436.400000
17405 17414 1 0.13986 296436.400000
17406 17407 1 0.18850 35430.112000
17406 17408 1 0.13986 296436.400000
17407 17416 1 0.16500 119244.000000
17408 17409 1 0.10860 301825.392000
17408 17410 1 0.13986 296436.400000
17410 17411 1 0.10860 301825.392000
17410 17412 1 0.13986 296436.400000
17412 17413 1 0.10860 301825.392000
17412 17414 1 0.13986 296436.400000
17414 17415 1 0.10860 301825.392000
17416 17417 1 0.09450 207108.000000
17418 17419 1 0.10860 301825.392000
17419 17420 1 0.13986 296436.400000
17419 17428 1 0.13986 296436.400000
17420 17421 1 0.18850 35430.112000
17420 17422 1 0.13986 296436.400000
17421 17430 1 0.16500 119244.000000
17422 17423 1 0.10860 301825.392000
17422 17424 1 0.13986 296436.400000
17424 17425 1 0.10860 301825.392000
17424 17426 1 0.13986 296436.400000
17426 17427 1 0.10860 301825.392000
17426 17428 1 0.13986 296436.400000
17428 17429 1 0.10860 301825.392000
17430 17431 1 0.09450 207108.000000
17432 17433 1 0.10860 301825.392000
17433 17434 1 0.13986 296436.400000
17433 17442 1 0.13986 296436.400000
17434 17435 1 0.18850 35430.112000
17434 17436 1 0.13986 296436.400000
17435 17444 1 0.16500 119244.000000
17436 17437 1 0.10860 301825.392000
17436 17438 1 0.13986 296436.400000
17438 17439 1 0.10860 301825.392000
17438 17440 1 0.13986 296436.400000
17440 17441 1 0.10860 301825.392000
17440 17442 1 0.13986 296436.400000
17442 17443 1 0.10860 301825.392000
17444 17445 1 0.09450 207108.000000
17446 17447 1 0.10860 301825.392000
17447 17448 1 0.13986 296436.400000
17447 17456 1 0.13986 296436.400000
17448 17449 1 0.18850 35430.112000
17448 17450 1 0.13986 296436.400000
17449 17458 1 0.16500 119244.000000
17450 17451 1 0.10860 301825.392000
17450 17452 1 0.13986 296436.400000
17452 17453 1 0.10860 301825.392000
17452 17454 1 0.13986 296436.400000
17454 17455 1 0.10860 301825.392000
17454 17456 1 0.13986 296436.400000
17456 17457 1 0.10860 301825.392000
17458 17459 1 0.09450 207108.000000
17460 17461 1 0.10860 301825.392000
17461 17462 1 0.13986 296436.400000
17461 17470 1 0.13986 296436.400000
17462 17463 1 0.18850 35430.112000
17462 17464 1 0.13986 296436.400000
17463 17472 1 0.16500 119244.000000
17464 17465 1 0.10860 301825.392000
17464 17466 1 0.13986 296436.400000
17466 17467 1 0.10860 301825.392000
17466 17468 1 0.13986 296436.400000
17468 17469 1 0.10860 301825.392000
17468 17470 1 0.13986 296436.400000
17470 17471 1 0.10860 301825.392000
17472 17473 1 0.09450 207108.000000
17474 17475 1 0.10860 301825.392000
17475 17476 1 0.13986 296436.400000
17475 17484 1 0.13986 296436.400000
17476 17477 1 0.18850 35430.112000
17476 17478 1 0.13986 296436.400000
17477 17486 1 0.16500 119244.000000
17478 17479 1 0.10860 301825.392000
17478 17480 1 0.13986 296436.400000
17480 17481 1 0.10860 301825.392000
17480 17482 1 0.13986 296436.400000
17482 17483 1 0.10860 301825.392000
17482 17484 1 0.13986 296436.400000
17484 17485 1 0.10860 301825.392000
17486 17487 1 0.09450 207108.000000
17488 17489 1 0.10860 301825.392000
17489 17490 1 0.13986 296436.400000
17489 17498 1 0.13986 296436.400000
17490 17491 1 0.18850 35430.112000
17490 17492 1 0.13986 296436.400000
17491 17500 1 0.16500 119244.000000
17492 17493 1 0.10860 301825.392000
17492 17494 1 0.13986 296436.400000
17494 17495 1 0.10860 301825.392000
17494 17496 1 0.13986 296436.400000
17496 17497 1 0.10860 301825.392000
17496 17498 1 0.13986 296436.400000
17498 17499 1 0.10860 301825.392000
17500 17501 1 0.09450 207108.000000
17502 17503 1 0.10860 301825.392000
17503 17504 1 0.13986 296436.400000
17503 17512 1 0.13986 296436.400000
17504 17505 1 0.18850 35430.112000
17504 17506 1 0.13986 296436.400000
17505 17514 1 0.16500 119244.000000
17506 17507 1 0.10860 301825.392000
17506 17508 1 0.13986 296436.400000
17508 17509 1 0.10860 301825.392000
17508 17510 1 0.13986 296436.400000
17510 17511 1 0.10860 301825.392000
17510 17512 1 0.13986 296436.400000
17512 17513 1 0.10860 301825.392000
17514 17515 1 0.09450 207108.000000
17516 17517 1 0.10860 301825.392000
17517 17518 1 0.13986 296436.400000
17517 17526 1 0.13986 296436.400000
17518 17519 1 0.18850 35430.112000
17518 17520 1 0.13986 296436.400000
17519 17528 1 0.16500 119244.000000
17520 17521 1 0.10860 301825.392000
17520 17522 1 0.13986 296436.400000
17522 17523 1 0.10860 301825.392000
17522 17524 1 0.13986 296436.400000
17524 17525 1 0.10860 301825.392000
17524 17526 1 0.13986 296436.400000
17526 17527 1 0.10860 301825.392000
17528 17529 1 0.09450 207108.000000
17530 17531 1 0.10860 301825.392000
17531 17532 1 0.13986 296436.400000
17531 17540 1 0.13986 296436.400000
17532 17533 1 0.18850 35430.112000
17532 17534 1 0.13986 296436.400000
17533 17542 1 0.16500 119244.000000
17534 17535 1 0.10860 301825.392000
17534 17536 1 0.13986 296436.400000
17536 17537 1 0.10860 301825.392000
17536 17538 1 0.13986 296436.400000
17538 17539 1 0.10860 301825.392000
17538 17540 1 0.13986 296436.400000
17540 17541 1 0.10860 301825.392000
17542 17543 1 0.09450 207108.000000
17544 17545 1 0.10860 301825.392000
17545 17546 1 0.13986 296436.400000
17545 17554 1 0.13986 296436.400000
17546 17547 1 0.18850 35430.112000
17546 17548 1 0.13986 296436.400000
17547 17556 1 0.16500 119244.000000
17548 17549 1 0.10860 301825.392000
17548 17550 1 0.13986 296436.400000
17550 17551 1 0.10860 301825.392000
17550 17552 1 0.13986 296436.400000
17552 17553 1 0.10860 301825.392000
17552 17554 1 0.13986 296436.400000
17554 17555 1 0.10860 301825.392000
17556 17557 1 0.09450 207108.000000
17558 17559 1 0.10860 301825.392000
17559 17560 1 0.13986 296436.400000
17559 17568 1 0.13986 296436.400000
17560 17561 1 0.18850 35430.112000
17560 17562 1 0.13986 296436.400000
17561 17570 1 0.16500 119244.000000
17562 17563 1 0.10860 301825.392000
17562 17564 1 0.13986 296436.400000
17564 17565 1 0.10860 301825.392000
17564 17566 1 0.13986 296436.400000
17566 17567 1 0.10860 301825.392000
17566 17568 1 0.13986 296436.400000
17568 17569 1 0.10860 301825.392000
17570 17571 1 0.09450 207108.000000
17572 17573 1 0.10860 301825.392000
17573 17574 1 0.13986 296436.400000
17573 17582 1 0.13986 296436.400000
17574 17575 1 0.18850 35430.112000
17574 17576 1 0.13986 296436.400000
17575 17584 1 0.16500 119244.000000
17576 17577 1 0.10860 301825.392000
17576 17578 1 0.13986 296436.400000
17578 17579 1 0.10860 301825.392000
17578 17580 1 0.13986 296436.400000
17580 17581 1 0.10860 301825.392000
17580 17582 1 0.13986 296436.400000
17582 17583 1 0.10860 301825.392000
17584 17585 1 0.09450 207108.000000
17586 17587 1 0.10860 301825.392000
17587 17588 1 0.13986 296436.400000
17587 17596 1 0.13986 296436.400000
17588 17589 1 0.18850 35430.112000
17588 17590 1 0.13986 296436.400000
17589 17598 1 0.16500 119244.000000
17590 17591 1 0.10860 301825.392000
17590 17592 1 0.13986 296436.400000
17592 17593 1 0.10860 301825.392000
17592 17594 1 0.13986 296436.400000
17594 17595 1 0.10860 301825.392000
17594 17596 1 0.13986 296436.400000
17596 17597 1 0.10860 301825.392000
17598 17599 1 0.09450 207108.000000
17600 17601 1 0.10860 301825.392000
17601 17602 1 0.13986 296436.400000
17601 17610 1 0.13986 296436.400000
17602 17603 1 0.18850 35430.112000
17602 17604 1 0.13986 296436.400000
17603 17612 1 0.16500 119244.000000
17604 17605 1 0.10860 301825.392000
17604 17606 1 0.13986 296436.400000
17606 17607 1 0.10860 301825.392000
17606 17608 1 0.13986 296436.400000
17608 17609 1 0.10860 301825.392000
17608 17610 1 0.13986 296436.400000
17610 17611 1 0.10860 301825.392000
17612 17613 1 0.09450 207108.000000
17614 17615 1 0.10860 301825.392000
17615 17616 1 0.13986 296436.400000
17615 17624 1 0.13986 296436.400000
17616 17617 1 0.18850 35430.112000
17616 17618 1 0.13986 296436.400000
17617 17626 1 0.16500 119244.000000
17618 17619 1 0.10860 301825.392000
17618 17620 1 0.13986 296436.400000
17620 17621 1 0.10860 301825.392000
17620 17622 1 0.13986 296436.400000
17622 17623 1 0.10860 301825.392000
17622 17624 1 0.13986 296436.400000
17624 17625 1 0.10860 301825.392000
17626 17627 1 0.09450 207108.000000
17628 17629 1 0.10860 301825.392000
17629 17630 1 0.13986 296436.400000
17629 17638 1 0.13986 296436.400000
17630 17631 1 0.18850 35430.112000
17630 17632 1 0.13986 296436.400000
17631 17640 1 0.16500 119244.000000
17632 17633 1 0.10860 301825.392000
17632 17634 1 0.13986 296436.400000
17634 17635 1 0.10860 301825.392000
17634 17636 1 0.13986 296436.400000
17636 17637 1 0.10860 301825.392000
17636 17638 1 0.13986 296436.400000
17638 17639 1 0.10860 301825.392000
17640 17641 1 0.09450 207108.000000
17642 17643 1 0.10860 301825.392000
17643 17644 1 0.13986 296436.400000
17643 17652 1 0.13986 296436.400000
17644 17645 1 0.18850 35430.112000
17644 17646 1 0.13986 296436.400000
17645 17654 1 0.16500 119244.000000
17646 17647 1 0.10860 301825.392000
17646 17648 1 0.13986 296436.400000
17648 17649 1 0.10860 301825.392000
17648 17650 1 0.13986 296436.400000
17650 17651 1 0.10860 301825.392000
17650 17652 1 0.13986 296436.400000
17652 17653 1 0.10860 301825.392000
17654 17655 1 0.09450 207108.000000
17656 17657 1 0.10860 301825.392000
17657 17658 1 0.13986 296436.400000
17657 17666 1 0.13986 296436.400000
17658 17659 1 0.18850 35430.112000
17658 17660 1 0.13986 296436.400000
17659 17668 1 0.16500 119244.000000
17660 17661 1 0.10860 301825.392000
17660 17662 1 0.13986 296436.400000
17662 17663 1 0.10860 301825.392000
17662 17664 1 0.13986 296436.400000
17664 17665 1 0.10860 301825.392000
17664 17666 1 0.13986 296436.400000
17666 17667 1 0.10860 301825.392000
17668 17669 1 0.09450 207108.000000
17670 17671 1 0.10860 301825.392000
17671 17672 1 0.13986 296436.400000
17671 17680 1 0.13986 296436.400000
17672 17673 1 0.18850 35430.112000
17672 17674 1 0.13986 296436.400000
17673 17682 1 0.16500 119244.000000
17674 17675 1 0.10860 301825.392000
17674 17676 1 0.13986 296436.400000
17676 17677 1 0.10860 301825.392000
17676 17678 1 0.13986 296436.400000
17678 17679 1 0.10860 301825.392000
17678 17680 1 0.13986 296436.400000
17680 17681 1 0.10860 301825.392000
17682 17683 1 0.09450 207108.000000
17684 17685 1 0.10860 301825.392000
17685 17686 1 0.13986 296436.400000
17685 17694 1 0.13986 296436.400000
17686 17687 1 0.18850 35430.112000
17686 17688 1 0.13986 296436.400000
17687 17696 1 0.16500 119244.000000
17688 17689 1 0.10860 301825.392000
17688 17690 1 0.13986 296436.400000
17690 17691 1 0.10860 301825.392000
17690 17692 1 0.13986 296436.400000
17692 17693 1 0.10860 301825.392000
17692 17694 1 0.13986 296436.400000
17694 17695 1 0.10860 301825.392000
17696 17697 1 0.09450 207108.000000
17698 17699 1 0.10860 301825.392000
17699 17700 1 0.13986 296436.400000
17699 17708 1 0.13986 296436.400000
17700 17701 1 0.18850 35430.112000
17700 17702 1 0.13986 296436.400000
17701 17710 1 0.16500 119244.000000
17702 17703 1 0.10860 301825.392000
17702 17704 1 0.13986 296436.400000
17704 17705 1 0.10860 301825.392000
17704 17706 1 0.13986 296436.400000
17706 17707 1 0.10860 301825.392000
17706 17708 1 0.13986 296436.400000
17708 17709 1 0.10860 301825.392000
17710 17711 1 0.09450 207108.000000
17712 17713 1 0.10860 301825.392000
17713 17714 1 0.13986 296436.400000
17713 17722 1 0.13986 296436.400000
17714 17715 1 0.18850 35430.112000
17714 17716 1 0.13986 296436.400000
17715 17724 1 0.16500 119244.000000
17716 17717 1 0.10860 301825.392000
17716 17718 1 0.13986 296436.400000
17718 17719 1 0.10860 301825.392000
17718 17720 1 0.13986 296436.400000
17720 17721 1 0.10860 301825.392000
17720 17722 1 0.13986 296436.400000
17722 17723 1 0.10860 301825.392000
17724 17725 1 0.09450 207108.000000
17726 17727 1 0.10860 301825.392000
17727 17728 1 0.13986 296436.400000
17727 17736 1 0.13986 296436.400000
17728 17729 1 0.18850 35430.112000
17728 17730 1 0.13986 296436.400000
17729 17738 1 0.16500 119244.000000
17730 17731 1 0.10860 301825.392000
17730 17732 1 0.13986 296436.400000
17732 17733 1 0.10860 301825.392000
17732 17734 1 0.13986 296436.400000
17734 17735 1 0.10860 301825.392000
17734 17736 1 0.13986 296436.400000
17736 17737 1 0.10860 301825.392000
17738 17739 1 0.09450 207108.000000
17740 17741 1 0.10860 301825.392000
17741 17742 1 0.13986 296436.400000
17741 17750 1 0.13986 296436.400000
17742 17743 1 0.18850 35430.112000
17742 17744 1 0.13986 296436.400000
17743 17752 1 0.16500 119244.000000
17744 17745 1 0.10860 301825.392000
17744 17746 1 0.13986 296436.400000
17746 17747 1 0.10860 301825.392000
17746 17748 1 0.13986 296436.400000
17748 17749 1 0.10860 301825.392000
17748 17750 1 0.13986 296436.400000
17750 17751 1 0.10860 301825.392000
17752 17753 1 0.09450 207108.000000
17754 17755 1 0.10860 301825.392000
17755 17756 1 0.13986 296436.400000
17755 17764 1 0.13986 296436.400000
17756 17757 1 0.18850 35430.112000
17756 17758 1 0.13986 296436.400000
17757 17766 1 0.16500 119244.000000
17758 17759 1 0.10860 301825.392000
17758 17760 1 0.13986 296436.400000
17760 17761 1 0.10860 301825.392000
17760 17762 1 0.13986 296436.400000
17762 17763 1 0.10860 301825.392000
17762 17764 1 0.13986 296436.400000
17764 17765 1 0.10860 301825.392000
17766 17767 1 0.09450 207108.000000
17768 17769 1 0.10860 301825.392000
17769 17770 1 0.13986 296436.400000
17769 17778 1 0.13986 296436.400000
17770 17771 1 0.18850 35430.112000
17770 17772 1 0.13986 296436.400000
17771 17780 1 0.16500 119244.000000
17772 17773 1 0.10860 301825.392000
17772 17774 1 0.13986 296436.400000
17774 17775 1 0.10860 301825.392000
17774 17776 1 0.13986 296436.400000
17776 17777 1 0.10860 301825.392000
17776 17778 1 0.13986 296436.400000
17778 17779 1 0.10860 301825.392000
17780 17781 1 0.09450 207108.000000
17782 17783 1 0.10860 301825.392000
17783 17784 1 0.13986 296436.400000
17783 17792 1 0.13986 296436.400000
17784 17785 1 0.18850 35430.112000
17784 17786 1 0.13986 296436.400000
17785 17794 1 0.16500 119244.000000
17786 17787 1 0.10860 301825.392000
17786 17788 1 0.13986 296436.400000
17788 17789 1 0.10860 301825.392000
17788 17790 1 0.13986 296436.400000
17790 17791 1 0.10860 301825.392000
17790 17792 1 0.13986 296436.400000
17792 17793 1 0.10860 301825.392000
17794 17795 1 0.09450 207108.000000
17796 17797 1 0.10860 301825.392000
17797 17798 1 0.13986 296436.400000
17797 17806 1 0.13986 296436.400000
17798 17799 1 0.18850 35430.112000
17798 17800 1 0.13986 296436.400000
17799 17808 1 0.16500 119244.000000
17800 17801 1 0.10860 301825.392000
17800 17802 1 0.13986 296436.400000
17802 17803 1 0.10860 301825.392000
17802 17804 1 0.13986 296436.400000
17804 17805 1 0.10860 301825.392000
17804 17806 1 0.13986 296436.400000
17806 17807 1 0.10860 301825.392000
17808 17809 1 0.09450 207108.000000
17810 17811 1 0.10860 301825.392000
17811 17812 1 0.13986 296436.400000
17811 17820 1 0.13986 296436.400000
17812 17813 1 0.18850 35430.112000
17812 17814 1 0.13986 296436.400000
17813 17822 1 0.16500 119244.000000
17814 17815 1 0.10860 301825.392000
17814 17816 1 0.13986 296436.400000
17816 17817 1 0.10860 301825.392000
17816 17818 1 0.13986 296436.400000
17818 17819 1 0.10860 301825.392000
17818 17820 1 0.13986 296436.400000
17820 17821 1 0.10860 301825.392000
17822 17823 1 0.09450 207108.000000
17824 17825 1 0.10860 301825.392000
17825 17826 1 0.13986 296436.400000
17825 17834 1 0.13986 296436.400000
17826 17827 1 0.18850 35430.112000
17826 17828 1 0.13986 296436.400000
17827 17836 1 0.16500 119244.000000
17828 17829 1 0.10860 301825.392000
17828 17830 1 0.13986 296436.400000
17830 17831 1 0.10860 301825.392000
17830 17832 1 0.13986 296436.400000
17832 17833 1 0.10860 301825.392000
17832 17834 1 0.13986 296436.400000
17834 17835 1 0.10860 301825.392000
17836 17837 1 0.09450 207108.000000
17838 17839 1 0.10860 301825.392000
17839 17840 1 0.13986 296436.400000
17839 17848 1 0.13986 296436.400000
17840 17841 1 0.18850 35430.112000
17840 17842 1 0.13986 296436.400000
17841 17850 1 0.16500 119244.000000
17842 17843 1 0.10860 301825.392000
17842 17844 1 0.13986 296436.400000
17844 17845 1 0.10860 301825.392000
17844 17846 1 0.13986 296436.400000
17846 17847 1 0.10860 301825.392000
17846 17848 1 0.13986 296436.400000
17848 17849 1 0.10860 301825.392000
17850 17851 1 0.09450 207108.000000
17852 17853 1 0.10860 301825.392000
17853 17854 1 0.13986 296436.400000
17853 17862 1 0.13986 296436.400000
17854 17855 1 0.18850 35430.112000
17854 17856 1 0.13986 296436.400000
17855 17864 1 0.16500 119244.000000
17856 17857 1 0.10860 301825.392000
17856 17858 1 0.13986 296436.400000
17858 17859 1 0.10860 301825.392000
17858 17860 1 0.13986 296436.400000
17860 17861 1 0.10860 301825.392000
17860 17862 1 0.13986 296436.400000
17862 17863 1 0.10860 301825.392000
17864 17865 1 0.09450 207108.000000
17866 17867 1 0.10860 301825.392000
17867 17868 1 0.13986 296436.400000
17867 17876 1 0.13986 296436.400000
17868 17869 1 0.18850 35430.112000
17868 17870 1 0.13986 296436.400000
17869 17878 1 0.16500 119244.000000
17870 17871 1 0.10860 301825.392000
17870 17872 1 0.13986 296436.400000
17872 17873 1 0.10860 301825.392000
17872 17874 1 0.13986 296436.400000
17874 17875 1 0.10860 301825.392000
17874 17876 1 0.13986 296436.400000
17876 17877 1 0.10860 301825.392000
17878 17879 1 0.09450 207108.000000
17880 17881 1 0.10860 301825.392000
17881 17882 1 0.13986 296436.400000
17881 17890 1 0.13986 296436.400000
17882 17883 1 0.18850 35430.112000
17882 17884 1 0.13986 296436.400000
17883 17892 1 0.16500 119244.000000
17884 17885 1 0.10860 301825.392000
17884 17886 1 0.13986 296436.400000
17886 17887 1 0.10860 301825.392000
17886 17888 1 0.13986 296436.400000
17888 17889 1 0.10860 301825.392000
17888 17890 1 0.13986 296436.400000
17890 17891 1 0.10860 301825.392000
17892 17893 1 0.09450 207108.000000
17894 17895 1 0.10860 301825.392000
17895 17896 1 0.13986 296436.400000
17895 17904 1 0.13986 296436.400000
17896 17897 1 0.18850 35430.112000
17896 17898 1 0.13986 296436.400000
17897 17906 1 0.16500 119244.000000
17898 17899 1 0.10860 301825.392000
17898 17900 1 0.13986 296436.400000
17900 17901 1 0.10860 301825.392000
17900 17902 1 0.13986 296436.400000
17902 17903 1 0.10860 301825.392000
17902 17904 1 0.13986 296436.400000
17904 17905 1 0.10860 301825.392000
17906 17907 1 0.09450 207108.000000
17908 17909 1 0.10860 301825.392000
17909 17910 1 0.13986 296436.400000
17909 17918 1 0.13986 296436.400000
17910 17911 1 0.18850 35430.112000
17910 17912 1 0.13986 296436.400000
17911 17920 1 0.16500 119244.000000
17912 17913 1 0.10860 301825.392000
17912 17914 1 0.13986 296436.400000
17914 17915 1 0.10860 301825.392000
17914 17916 1 0.13986 296436.400000
17916 17917 1 0.10860 301825.392000
17916 17918 1 0.13986 296436.400000
17918 17919 1 0.10860 301825.392000
17920 17921 1 0.09450 207108.000000
17922 17923 1 0.10860 301825.392000
17923 17924 1 0.13986 296436.400000
17923 17932 1 0.13986 296436.400000
17924 17925 1 0.18850 35430.112000
17924 17926 1 0.13986 296436.400000
17925 17934 1 0.16500 119244.000000
17926 17927 1 0.10860 301825.392000
17926 17928 1 0.13986 296436.400000
17928 17929 1 0.10860 301825.392000
17928 17930 1 0.13986 296436.400000
17930 17931 1 0.10860 301825.392000
17930 17932 1 0.13986 296436.400000
17932 17933 1 0.10860 301825.392000
17934 17935 1 0.09450 207108.000000
17936 17937 1 0.10860 301825.392000
17937 17938 1 0.13986 296436.400000
17937 17946 1 0.13986 296436.400000
17938 17939 1 0.18850 35430.112000
17938 17940 1 0.13986 296436.400000
17939 17948 1 0.16500 119244.000000
17940 17941 1 0.10860 301825.392000
17940 17942 1 0.13986 296436.400000
17942 17943 1 0.10860 301825.392000
17942 17944 1 0.13986 296436.400000
17944 17945 1 0.10860 301825.392000
17944 17946 1 0.13986 296436.400000
17946 17947 1 0.10860 301825.392000
17948 17949 1 0.09450 207108.000000
17950 17951 1 0.10860 301825.392000
17951 17952 1 0.13986 296436.400000
17951 17960 1 0.13986 296436.400000
17952 17953 1 0.18850 35430.112000
17952 17954 1 0.13986 296436.400000
17953 17962 1 0.16500 119244.000000
17954 17955 1 0.10860 301825.392000
17954 17956 1 0.13986 296436.400000
17956 17957 1 0.10860 301825.392000
17956 17958 1 0.13986 296436.400000
17958 17959 1 0.10860 301825.392000
17958 17960 1 0.13986 296436.400000
17960 17961 1 0.10860 301825.392000
17962 17963 1 0.09450 207108.000000
17964 17965 1 0.10860 301825.392000
17965 17966 1 0.13986 296436.400000
17965 17974 1 0.13986 296436.400000
17966 17967 1 0.18850 35430.112000
17966 17968 1 0.13986 296436.400000
17967 17976 1 0.16500 119244.000000
17968 17969 1 0.10860 301825.392000
17968 17970 1 0.13986 296436.400000
17970 17971 1 0.10860 301825.392000
17970 17972 1 0.13986 296436.400000
17972 17973 1 0.10860 301825.392000
17972 17974 1 0.13986 296436.400000
17974 17975 1 0.10860 301825.392000
17976 17977 1 0.09450 207108.000000
17978 17979 1 0.10860 301825.392000
17979 17980 1 0.13986 296436.400000
17979 17988 1 0.13986 296436.400000
17980 17981 1 0.18850 35430.112000
17980 17982 1 0.13986 296436.400000
17981 17990 1 0.16500 119244.000000
17982 17983 1 0.10860 301825.392000
17982 17984 1 0.13986 296436.400000
17984 17985 1 0.10860 301825.392000
17984 17986 1 0.13986 296436.400000
17986 17987 1 0.10860 301825.392000
17986 17988 1 0.13986 296436.400000
17988 17989 1 0.10860 301825.392000
17990 17991 1 0.09450 207108.000000
17992 17993 1 0.10860 301825.392000
17993 17994 1 0.13986 296436.400000
17993 18002 1 0.13986 296436.400000
17994 17995 1 0.18850 35430.112000
17994 17996 1 0.13986 296436.400000
17995 18004 1 0.16500 119244.000000
17996 17997 1 0.10860 301825.392000
17996 17998 1 0.13986 296436.400000
17998 17999 1 0.10860 301825.392000
17998 18000 1 0.13986 296436.400000
18000 18001 1 0.10860 301825.392000
18000 18002 1 0.13986 296436.400000
18002 18003 1 0.10860 301825.392000
18004 18005 1 0.09450 207108.000000
18006 18007 1 0.10860 301825.392000
18007 18008 1 0.13986 296436.400000
18007 18016 1 0.13986 296436.400000
18008 18009 1 0.18850 35430.112000
18008 18010 1 0.13986 296436.400000
18009 18018 1 0.16500 119244.000000
18010 18011 1 0.10860 301825.392000
18010 18012 1 0.13986 296436.400000
18012 18013 1 0.10860 301825.392000
18012 18014 1 0.13986 296436.400000
18014 18015 1 0.10860 301825.392000
18014 18016 1 0.13986 296436.400000
18016 18017 1 0.10860 301825.392000
18018 18019 1 0.09450 207108.000000
18020 18021 1 0.10860 301825.392000
18021 18022 1 0.13986 296436.400000
18021 18030 1 0.13986 296436.400000
18022 18023 1 0.18850 35430.112000
18022 18024 1 0.13986 296436.400000
18023 18032 1 0.16500 119244.000000
18024 18025 1 0.10860 301825.392000
18024 18026 1 0.13986 296436.400000
18026 18027 1 0.10860 301825.392000
18026 18028 1 0.13986 296436.400000
18028 18029 1 0.10860 301825.392000
18028 18030 1 0.13986 296436.400000
18030 18031 1 0.10860 301825.392000
18032 18033 1 0.09450 207108.000000
18034 18035 1 0.10860 301825.392000
18035 18036 1 0.13986 296436.400000
18035 18044 1 0.13986 296436.400000
18036 18037 1 0.18850 35430.112000
18036 18038 1 0.13986 296436.400000
18037 18046 1 0.16500 119244.000000
18038 18039 1 0.10860 301825.392000
18038 18040 1 0.13986 296436.400000
18040 18041 1 0.10860 301825.392000
18040 18042 1 0.13986 296436.400000
18042 18043 1 0.10860 301825.392000
18042 18044 1 0.13986 296436.400000
18044 18045 1 0.10860 301825.392000
18046 18047 1 0.09450 207108.000000
18048 18049 1 0.10860 301825.392000
18049 18050 1 0.13986 296436.400000
18049 18058 1 0.13986 296436.400000
18050 18051 1 0.18850 35430.112000
18050 18052 1 0.13986 296436.400000
18051 18060 1 0.16500 119244.000000
18052 18053 1 0.10860 301825.392000
18052 18054 1 0.13986 296436.400000
18054 18055 1 0.10860 301825.392000
18054 18056 1 0.13986 296436.400000
18056 18057 1 0.10860 301825.392000
18056 18058 1 0.13986 296436.400000
18058 18059 1 0.10860 301825.392000
18060 18061 1 0.09450 207108.000000
18062 18063 1 0.10860 301825.392000
18063 18064 1 0.13986 296436.400000
18063 18072 1 0.13986 296436.400000
18064 18065 1 0.18850 35430.112000
18064 18066 1 0.13986 296436.400000
18065 18074 1 0.16500 119244.000000
18066 18067 1 0.10860 301825.392000
18066 18068 1 0.13986 296436.400000
18068 18069 1 0.10860 301825.392000
18068 18070 1 0.13986 296436.400000
18070 18071 1 0.10860 301825.392000
18070 18072 1 0.13986 296436.400000
18072 18073 1 0.10860 301825.392000
18074 18075 1 0.09450 207108.000000
18076 18077 1 0.10860 301825.392000
18077 18078 1 0.13986 296436.400000
18077 18086 1 0.13986 296436.400000
18078 18079 1 0.18850 35430.112000
18078 18080 1 0.13986 296436.400000
18079 18088 1 0.16500 119244.000000
18080 18081 1 0.10860 301825.392000
18080 18082 1 0.13986 296436.400000
18082 18083 1 0.10860 301825.392000
18082 18084 1 0.13986 296436.400000
18084 18085 1 0.10860 301825.392000
18084 18086 1 0.13986 296436.400000
18086 18087 1 0.10860 301825.392000
18088 18089 1 0.09450 207108.000000
18090 18091 1 0.10860 301825.392000
18091 18092 1 0.13986 296436.400000
18091 18100 1 0.13986 296436.400000
18092 18093 1 0.18850 35430.112000
18092 18094 1 0.13986 296436.400000
18093 18102 1 0.16500 119244.000000
18094 18095 1 0.10860 301825.392000
18094 18096 1 0.13986 296436.400000
18096 18097 1 0.10860 301825.392000
18096 18098 1 0.13986 296436.400000
18098 18099 1 0.10860 301825.392000
18098 18100 1 0.13986 296436.400000
18100 18101 1 0.10860 301825.392000
18102 18103 1 0.09450 207108.000000
18104 18105 1 0.10860 301825.392000
18105 18106 1 0.13986 296436.400000
18105 18114 1 0.13986 296436.400000
18106 18107 1 0.18850 35430.112000
18106 18108 1 0.13986 296436.400000
18107 18116 1 0.16500 119244.000000
18108 18109 1 0.10860 301825.392000
18108 18110 1 0.13986 296436.400000
18110 18111 1 0.10860 301825.392000
18110 18112 1 0.13986 296436.400000
18112 18113 1 0.10860 301825.392000
18112 18114 1 0.13986 296436.400000
18114 18115 1 0.10860 301825.392000
18116 18117 1 0.09450 207108.000000
18118 18119 1 0.10860 301825.392000
18119 18120 1 0.13986 296436.400000
18119 18128 1 0.13986 296436.400000
18120 18121 1 0.18850 35430.112000
18120 18122 1 0.13986 296436.400000
18121 18130 1 0.16500 119244.000000
18122 18123 1 0.10860 301825.392000
18122 18124 1 0.13986 296436.400000
18124 18125 1 0.10860 301825.392000
18124 18126 1 0.13986 296436.400000
18126 18127 1 0.10860 301825.392000
18126 18128 1 0.13986 296436.400000
18128 18129 1 0.10860 301825.392000
18130 18131 1 0.09450 207108.000000
18132 18133 1 0.10860 301825.392000
18133 18134 1 0.13986 296436.400000
18133 18142 1 0.13986 296436.400000
18134 18135 1 0.18850 35430.112000
18134 18136 1 0.13986 296436.400000
18135 18144 1 0.16500 119244.000000
18136 18137 1 0.10860 301825.392000
18136 18138 1 0.13986 296436.400000
18138 18139 1 0.10860 301825.392000
18138 18140 1 0.13986 296436.400000
18140 18141 1 0.10860 301825.392000
18140 18142 1 0.13986 296436.400000
18142 18143 1 0.10860 301825.392000
18144 18145 1 0.09450 207108.000000
18146 18147 1 0.10860 301825.392000
18147 18148 1 0.13986 296436.400000
18147 18156 1 0.13986 296436.400000
18148 18149 1 0.18850 35430.112000
18148 18150 1 0.13986 296436.400000
18149 18158 1 0.16500 119244.000000
18150 18151 1 0.10860 301825.392000
18150 18152 1 0.13986 296436.400000
18152 18153 1 0.10860 301825.392000
18152 18154 1 0.13986 296436.400000
18154 18155 1 0.10860 301825.392000
18154 18156 1 0.13986 296436.400000
18156 18157 1 0.10860 301825.392000
18158 18159 1 0.09450 207108.000000
18160 18161 1 0.10860 301825.392000
18161 18162 1 0.13986 296436.400000
18161 18170 1 0.13986 296436.400000
18162 18163 1 0.18850 35430.112000
18162 18164 1 0.13986 296436.400000
18163 18172 1 0.16500 119244.000000
18164 18165 1 0.10860 301825.392000
18164 18166 1 0.13986 296436.400000
18166 18167 1 0.10860 301825.392000
18166 18168 1 0.13986 296436.400000
18168 18169 1 0.10860 301825.392000
18168 18170 1 0.13986 296436.400000
18170 18171 1 0.10860 301825.392000
18172 18173 1 0.09450 207108.000000
18174 18175 1 0.10860 301825.392000
18175 18176 1 0.13986 296436.400000
18175 18184 1 0.13986 296436.400000
18176 18177 1 0.18850 35430.112000
18176 18178 1 0.13986 296436.400000
18177 18186 1 0.16500 119244.000000
18178 18179 1 0.10860 301825.392000
18178 18180 1 0.13986 296436.400000
18180 18181 1 0.10860 301825.392000
18180 18182 1 0.13986 296436.400000
18182 18183 1 0.10860 301825.392000
18182 18184 1 0.13986 296436.400000
18184 18185 1 0.10860 301825.392000
18186 18187 1 0.09450 207108.000000
18188 18189 1 0.10860 301825.392000
18189 18190 1 0.13986 296436.400000
18189 18198 1 0.13986 296436.400000
18190 18191 1 0.18850 35430.112000
18190 18192 1 0.13986 296436.400000
18191 18200 1 0.16500 119244.000000
18192 18193 1 0.10860 301825.392000
18192 18194 1 0.13986 296436.400000
18194 18195 1 0.10860 301825.392000
18194 18196 1 0.13986 296436.400000
18196 18197 1 0.10860 301825.392000
18196 18198 1 0.13986 296436.400000
18198 18199 1 0.10860 301825.392000
18200 18201 1 0.09450 207108.000000
18202 18203 1 0.10860 301825.392000
18203 18204 1 0.13986 296436.400000
18203 18212 1 0.13986 296436.400000
18204 18205 1 0.18850 35430.112000
18204 18206 1 0.13986 296436.400000
18205 18214 1 0.16500 119244.000000
18206 18207 1 0.10860 301825.392000
18206 18208 1 0.13986 296436.400000
18208 18209 1 0.10860 301825.392000
18208 18210 1 0.13986 296436.400000
18210 18211 1 0.10860 301825.392000
18210 18212 1 0.13986 296436.400000
18212 18213 1 0.10860 301825.392000
18214 18215 1 0.09450 207108.000000
18216 18217 1 0.10860 301825.392000
18217 18218 1 0.13986 296436.400000
18217 18226 1 0.13986 296436.400000
18218 18219 1 0.18850 35430.112000
18218 18220 1 0.13986 296436.400000
18219 18228 1 0.16500 119244.000000
18220 18221 1 0.10860 301825.392000
18220 18222 1 0.13986 296436.400000
18222 18223 1 0.10860 301825.392000
18222 18224 1 0.13986 296436.400000
18224 18225 1 0.10860 301825.392000
18224 18226 1 0.13986 296436.400000
18226 18227 1 0.10860 301825.392000
18228 18229 1 0.09450 207108.000000
18230 18231 1 0.10860 301825.392000
18231 18232 1 0.13986 296436.400000
18231 18240 1 0.13986 296436.400000
18232 18233 1 0.18850 35430.112000
18232 18234 1 0.13986 296436.400000
18233 18242 1 0.16500 119244.000000
18234 18235 1 0.10860 301825.392000
18234 18236 1 0.13986 296436.400000
18236 18237 1 0.10860 301825.392000
18236 18238 1 0.13986 296436.400000
18238 18239 1 0.10860 301825.392000
18238 18240 1 0.13986 296436.400000
18240 18241 1 0.10860 301825.392000
18242 18243 1 0.09450 207108.000000
18244 18245 1 0.10860 301825.392000
18245 18246 1 0.13986 296436.400000
18245 18254 1 0.13986 296436.400000
18246 18247 1 0.18850 35430.112000
18246 18248 1 0.13986 296436.400000
18247 18256 1 0.16500 119244.000000
18248 18249 1 0.10860 301825.392000
18248 18250 1 0.13986 296436.400000
18250 18251 1 0.10860 301825.392000
18250 18252 1 0.13986 296436.400000
18252 18253 1 0.10860 301825.392000
18252 18254 1 0.13986 296436.400000
18254 18255 1 0.10860 301825.392000
18256 18257 1 0.09450 207108.000000
18258 18259 1 0.10860 301825.392000
18259 18260 1 0.13986 296436.400000
18259 18268 1 0.13986 296436.400000
18260 18261 1 0.18850 35430.112000
18260 18262 1 0.13986 296436.400000
18261 18270 1 0.16500 119244.000000
18262 18263 1 0.10860 301825.392000
18262 18264 1 0.13986 296436.400000
18264 18265 1 0.10860 301825.392000
18264 18266 1 0.13986 296436.400000
18266 18267 1 0.10860 301825.392000
18266 18268 1 0.13986 296436.400000
18268 18269 1 0.10860 301825.392000
18270 18271 1 0.09450 207108.000000
18272 18273 1 0.10860 301825.392000
18273 18274 1 0.13986 296436.400000
18273 18282 1 0.13986 296436.400000
18274 18275 1 0.18850 35430.112000
18274 18276 1 0.13986 296436.400000
18275 18284 1 0.16500 119244.000000
18276 18277 1 0.10860 301825.392000
18276 18278 1 0.13986 296436.400000
18278 18279 1 0.10860 301825.392000
18278 18280 1 0.13986 296436.400000
18280 18281 1 0.10860 301825.392000
18280 18282 1 0.13986 296436.400000
18282 18283 1 0.10860 301825.392000
18284 18285 1 0.09450 207108.000000
18286 18287 1 0.10860 301825.392000
18287 18288 1 0.13986 296436.400000
18287 18296 1 0.13986 296436.400000
18288 18289 1 0.18850 35430.112000
18288 18290 1 0.13986 296436.400000
18289 18298 1 0.16500 119244.000000
18290 18291 1 0.10860 301825.392000
18290 18292 1 0.13986 296436.400000
18292 18293 1 0.10860 301825.392000
18292 18294 1 0.13986 296436.400000
18294 18295 1 0.10860 301825.392000
18294 18296 1 0.13986 296436.400000
18296 18297 1 0.10860 301825.392000
18298 18299 1 0.09450 207108.000000
18300 18301 1 0.10860 301825.392000
18301 18302 1 0.13986 296436.400000
18301 18310 1 0.13986 296436.400000
18302 18303 1 0.18850 35430.112000
18302 18304 1 0.13986 296436.400000
18303 18312 1 0.16500 119244.000000
18304 18305 1 0.10860 301825.392000
18304 18306 1 0.13986 296436.400000
18306 18307 1 0.10860 301825.392000
18306 18308 1 0.13986 296436.400000
18308 18309 1 0.10860 301825.392000
18308 18310 1 0.13986 296436.400000
18310 18311 1 0.10860 301825.392000
18312 18313 1 0.09450 207108.000000
18314 18315 1 0.10860 301825.392000
18315 18316 1 0.13986 296436.400000
18315 18324 1 0.13986 296436.400000
18316 18317 1 0.18850 35430.112000
18316 18318 1 0.13986 296436.400000
18317 18326 1 0.16500 119244.000000
18318 18319 1 0.10860 301825.392000
18318 18320 1 0.13986 296436.400000
18320 18321 1 0.10860 301825.392000
18320 18322 1 0.13986 296436.400000
18322 18323 1 0.10860 301825.392000
18322 18324 1 0.13986 296436.400000
18324 18325 1 0.10860 301825.392000
18326 18327 1 0.09450 207108.000000
18328 18329 1 0.10860 301825.392000
18329 18330 1 0.13986 296436.400000
18329 18338 1 0.13986 296436.400000
18330 18331 1 0.18850 35430.112000
18330 18332 1 0.13986 296436.400000
18331 18340 1 0.16500 119244.000000
18332 18333 1 0.10860 301825.392000
18332 18334 1 0.13986 296436.400000
18334 18335 1 0.10860 301825.392000
18334 18336 1 0.13986 296436.400000
18336 18337 1 0.10860 301825.392000
18336 18338 1 0.13986 296436.400000
18338 18339 1 0.10860 301825.392000
18340 18341 1 0.09450 207108.000000
18342 18343 1 0.10860 301825.392000
18343 18344 1 0.13986 296436.400000
18343 18352 1 0.13986 296436.400000
18344 18345 1 0.18850 35430.112000
18344 18346 1 0.13986 296436.400000
18346 18347 1 0.10860 301825.392000
18346 18348 1 0.13986 296436.400000
18348 18349 1 0.10860 301825.392000
18348 18350 1 0.13986 296436.400000
18350 18351 1 0.10860 301825.392000
18350 18352 1 0.13986 296436.400000
18352 18353 1 0.10860 301825.392000
18354 18355 1 0.10860 301825.392000
18355 18356 1 0.13986 296436.400000
18355 18364 1 0.13986 296436.400000
18356 18357 1 0.18850 35430.112000
18356 18358 1 0.13986 296436.400000
18358 18359 1 0.10860 301825.392000
18358 18360 1 0.13986 296436.400000
18360 18361 1 0.10860 301825.392000
18360 18362 1 0.13986 296436.400000
18362 18363 1 0.10860 301825.392000
18362 18364 1 0.13986 296436.400000
18364 18365 1 0.10860 301825.392000
18366 18367 1 0.10860 301825.392000
18367 18368 1 0.13986 296436.400000
18367 18376 1 0.13986 296436.400000
18368 18369 1 0.18850 35430.112000
18368 18370 1 0.13986 296436.400000
18370 18371 1 0.10860 301825.392000
18370 18372 1 0.13986 296436.400000
18372 18373 1 0.10860 301825.392000
18372 18374 1 0.13986 296436.400000
18374 18375 1 0.10860 301825.392000
18374 18376 1 0.13986 296436.400000
18376 18377 1 0.10860 301825.392000
18378 18379 1 0.10860 301825.392000
18379 18380 1 0.13986 296436.400000
18379 18388 1 0.13986 296436.400000
18380 18381 1 0.18850 35430.112000
18380 18382 1 0.13986 296436.400000
18382 18383 1 0.10860 301825.392000
18382 18384 1 0.13986 296436.400000
18384 18385 1 0.10860 301825.392000
18384 18386 1 0.13986 296436.400000
18386 18387 1 0.10860 301825.392000
18386 18388 1 0.13986 296436.400000
18388 18389 1 0.10860 301825.392000
18390 18391 1 0.10860 301825.392000
18391 18392 1 0.13986 296436.400000
18391 18400 1 0.13986 296436.400000
18392 18393 1 0.18850 35430.112000
18392 18394 1 0.13986 296436.400000
18394 18395 1 0.10860 301825.392000
18394 18396 1 0.13986 296436.400000
18396 18397 1 0.10860 301825.392000
18396 18398 1 0.13986 296436.400000
18398 18399 1 0.10860 301825.392000
18398 18400 1 0.13986 296436.400000
18400 18401 1 0.10860 301825.392000
18402 18403 1 0.10860 301825.392000
18403 18404 1 0.13986 296436.400000
18403 18412 1 0.13986 296436.400000
18404 18405 1 0.18850 35430.112000
18404 18406 1 0.13986 296436.400000
18406 18407 1 0.10860 301825.392000
18406 18408 1 0.13986 296436.400000
18408 18409 1 0.10860 301825.392000
18408 18410 1 0.13986 296436.400000
18410 18411 1 0.10860 301825.392000
18410 18412 1 0.13986 296436.400000
18412 18413 1 0.10860 301825.392000
18414 18415 1 0.10860 301825.392000
18415 18416 1 0.13986 296436.400000
18415 18424 1 0.13986 296436.400000
18416 18417 1 0.18850 35430.112000
18416 18418 1 0.13986 296436.400000
18418 18419 1 0.10860 301825.392000
18418 18420 1 0.13986 296436.400000
18420 18421 1 0.10860 301825.392000
18420 18422 1 0.13986 296436.400000
18422 18423 1 0.10860 301825.392000
18422 18424 1 0.13986 296436.400000
18424 18425 1 0.10860 301825.392000
18426 18427 1 0.10860 301825.392000
18427 18428 1 0.13986 296436.400000
18427 18436 1 0.13986 296436.400000
18428 18429 1 0.18850 35430.112000
18428 18430 1 0.13986 296436.400000
18430 18431 1 0.10860 301825.392000
18430 18432 1 0.13986 296436.400000
18432 18433 1 0.10860 301825.392000
18432 18434 1 0.13986 296436.400000
18434 18435 1 0.10860 301825.392000
18434 18436 1 0.13986 296436.400000
18436 18437 1 0.10860 301825.392000
18438 18439 1 0.10860 301825.392000
18439 18440 1 0.13986 296436.400000
18439 18448 1 0.13986 296436.400000
18440 18441 1 0.18850 35430.112000
18440 18442 1 0.13986 296436.400000
18442 18443 1 0.10860 301825.392000
18442 18444 1 0.13986 296436.400000
18444 18445 1 0.10860 301825.392000
18444 18446 1 0.13986 296436.400000
18446 18447 1 0.10860 301825.392000
18446 18448 1 0.13986 296436.400000
18448 18449 1 0.10860 301825.392000
18450 18451 1 0.10860 301825.392000
18451 18452 1 0.13986 296436.400000
18451 18460 1 0.13986 296436.400000
18452 18453 1 0.18850 35430.112000
18452 18454 1 0.13986 296436.400000
18454 18455 1 0.10860 301825.392000
18454 18456 1 0.13986 296436.400000
18456 18457 1 0.10860 301825.392000
18456 18458 1 0.13986 296436.400000
18458 18459 1 0.10860 301825.392000
18458 18460 1 0.13986 296436.400000
18460 18461 1 0.10860 301825.392000
18462 18463 1 0.10860 301825.392000
18463 18464 1 0.13986 296436.400000
18463 18472 1 0.13986 296436.400000
18464 18465 1 0.18850 35430.112000
18464 18466 1 0.13986 296436.400000
18466 18467 1 0.10860 301825.392000
18466 18468 1 0.13986 296436.400000
18468 18469 1 0.10860 301825.392000
18468 18470 1 0.13986 296436.400000
18470 18471 1 0.10860 301825.392000
18470 18472 1 0.13986 296436.400000
18472 18473 1 0.10860 301825.392000
18474 18475 1 0.10860 301825.392000
18475 18476 1 0.13986 296436.400000
18475 18484 1 0.13986 296436.400000
18476 18477 1 0.18850 35430.112000
18476 18478 1 0.13986 296436.400000
18478 18479 1 0.10860 301825.392000
18478 18480 1 0.13986 296436.400000
18480 18481 1 0.10860 301825.392000
18480 18482 1 0.13986 296436.400000
18482 18483 1 0.10860 301825.392000
18482 18484 1 0.13986 296436.400000
18484 18485 1 0.10860 301825.392000
18486 18487 1 0.10860 301825.392000
18487 18488 1 0.13986 296436.400000
18487 18496 1 0.13986 296436.400000
18488 18489 1 0.18850 35430.112000
18488 18490 1 0.13986 296436.400000
18490 18491 1 0.10860 301825.392000
18490 18492 1 0.13986 296436.400000
18492 18493 1 0.10860 301825.392000
18492 18494 1 0.13986 296436.400000
18494 18495 1 0.10860 301825.392000
18494 18496 1 0.13986 296436.400000
18496 18497 1 0.10860 301825.392000
18498 18499 1 0.10860 301825.392000
18499 18500 1 0.13986 296436.400000
18499 18508 1 0.13986 296436.400000
18500 18501 1 0.18850 35430.112000
18500 18502 1 0.13986 296436.400000
18502 18503 1 0.10860 301825.392000
18502 18504 1 0.13986 296436.400000
18504 18505 1 0.10860 301825.392000
18504 18506 1 0.13986 296436.400000
18506 18507 1 0.10860 301825.392000
18506 18508 1 0.13986 296436.400000
18508 18509 1 0.10860 301825.392000
18510 18511 1 0.10860 301825.392000
18511 18512 1 0.13986 296436.400000
18511 18520 1 0.13986 296436.400000
18512 18513 1 0.18850 35430.112000
18512 18514 1 0.13986 296436.400000
18514 18515 1 0.10860 301825.392000
18514 18516 1 0.13986 296436.400000
18516 18517 1 0.10860 301825.392000
18516 18518 1 0.13986 296436.400000
18518 18519 1 0.10860 301825.392000
18518 18520 1 0.13986 296436.400000
18520 18521 1 0.10860 301825.392000
18522 18523 1 0.10860 301825.392000
18523 18524 1 0.13986 296436.400000
18523 18532 1 0.13986 296436.400000
18524 18525 1 0.18850 35430.112000
18524 18526 1 0.13986 296436.400000
18526 18527 1 0.10860 301825.392000
18526 18528 1 0.13986 296436.400000
18528 18529 1 0.10860 301825.392000
18528 18530 1 0.13986 296436.400000
18530 18531 1 0.10860 301825.392000
18530 18532 1 0.13986 296436.400000
18532 18533 1 0.10860 301825.392000
18534 18535 1 0.10860 301825.392000
18535 18536 1 0.13986 296436.400000
18535 18544 1 0.13986 296436.400000
18536 18537 1 0.18850 35430.112000
18536 18538 1 0.13986 296436.400000
18538 18539 1 0.10860 301825.392000
18538 18540 1 0.13986 296436.400000
18540 18541 1 0.10860 301825.392000
18540 18542 1 0.13986 296436.400000
18542 18543 1 0.10860 301825.392000
18542 18544 1 0.13986 296436.400000
18544 18545 1 0.10860 301825.392000
18546 18547 1 0.10860 301825.392000
18547 18548 1 0.13986 296436.400000
18547 18556 1 0.13986 296436.400000
18548 18549 1 0.18850 35430.112000
18548 18550 1 0.13986 296436.400000
18550 18551 1 0.10860 301825.392000
18550 18552 1 0.13986 296436.400000
18552 18553 1 0.10860 301825.392000
18552 18554 1 0.13986 296436.400000
18554 18555 1 0.10860 301825.392000
18554 18556 1 0.13986 296436.400000
18556 18557 1 0.10860 301825.392000
18558 18559 1 0.10860 301825.392000
18559 18560 1 0.13986 296436.400000
18559 18568 1 0.13986 296436.400000
18560 18561 1 0.18850 35430.112000
18560 18562 1 0.13986 296436.400000
18562 18563 1 0.10860 301825.392000
18562 18564 1 0.13986 296436.400000
18564 18565 1 0.10860 301825.392000
18564 18566 1 0.13986 296436.400000
18566 18567 1 0.10860 301825.392000
18566 18568 1 0.13986 296436.400000
18568 18569 1 0.10860 301825.392000
18570 18571 1 0.10860 301825.392000
18571 18572 1 0.13986 296436.400000
18571 18580 1 0.13986 296436.400000
18572 18573 1 0.18850 35430.112000
18572 18574 1 0.13986 296436.400000
18574 18575 1 0.10860 301825.392000
18574 18576 1 0.13986 296436.400000
18576 18577 1 0.10860 301825.392000
18576 18578 1 0.13986 296436.400000
18578 18579 1 0.10860 301825.392000
18578 18580 1 0.13986 296436.400000
18580 18581 1 0.10860 301825.392000
18582 18583 1 0.10860 301825.392000
18583 18584 1 0.13986 296436.400000
18583 18592 1 0.13986 296436.400000
18584 18585 1 0.18850 35430.112000
18584 18586 1 0.13986 296436.400000
18586 18587 1 0.10860 301825.392000
18586 18588 1 0.13986 296436.400000
18588 18589 1 0.10860 301825.392000
18588 18590 1 0.13986 296436.400000
18590 18591 1 0.10860 301825.392000
18590 18592 1 0.13986 296436.400000
18592 18593 1 0.10860 301825.392000
18594 18595 1 0.10860 301825.392000
18595 18596 1 0.13986 296436.400000
18595 18604 1 0.13986 296436.400000
18596 18597 1 0.18850 35430.112000
18596 18598 1 0.13986 296436.400000
18598 18599 1 0.10860 301825.392000
18598 18600 1 0.13986 296436.400000
18600 18601 1 0.10860 301825.392000
18600 18602 1 0.13986 296436.400000
18602 18603 1 0.10860 301825.392000
18602 18604 1 0.13986 296436.400000
18604 18605 1 0.10860 301825.392000
18606 18607 1 0.10860 301825.392000
18607 18608 1 0.13986 296436.400000
18607 18616 1 0.13986 296436.400000
18608 18609 1 0.18850 35430.112000
18608 18610 1 0.13986 296436.400000
18610 18611 1 0.10860 301825.392000
18610 18612 1 0.13986 296436.400000
18612 18613 1 0.10860 301825.392000
18612 18614 1 0.13986 296436.400000
18614 18615 1 0.10860 301825.392000
18614 18616 1 0.13986 296436.400000
18616 18617 1 0.10860 301825.392000
18618 18619 1 0.10860 301825.392000
18619 18620 1 0.13986 296436.400000
18619 18628 1 0.13986 296436.400000
18620 18621 1 0.18850 35430.112000
18620 18622 1 0.13986 296436.400000
18622 18623 1 0.10860 301825.392000
18622 18624 1 0.13986 296436.400000
18624 18625 1 0.10860 301825.392000
18624 18626 1 0.13986 296436.400000
18626 18627 1 0.10860 301825.392000
18626 18628 1 0.13986 296436.400000
18628 18629 1 0.10860 301825.392000
18630 18631 1 0.10860 301825.392000
18631 18632 1 0.13986 296436.400000
18631 18640 1 0.13986 296436.400000
18632 18633 1 0.18850 35430.112000
18632 18634 1 0.13986 296436.400000
18634 18635 1 0.10860 301825.392000
18634 18636 1 0.13986 296436.400000
18636 18637 1 0.10860 301825.392000
18636 18638 1 0.13986 296436.400000
18638 18639 1 0.10860 301825.392000
18638 18640 1 0.13986 296436.400000
18640 18641 1 0.10860 301825.392000
18642 18643 1 0.10860 301825.392000
18643 18644 1 0.13986 296436.400000
18643 18652 1 0.13986 296436.400000
18644 18645 1 0.18850 35430.112000
18644 18646 1 0.13986 296436.400000
18646 18647 1 0.10860 301825.392000
18646 18648 1 0.13986 296436.400000
18648 18649 1 0.10860 301825.392000
18648 18650 1 0.13986 296436.400000
18650 18651 1 0.10860 301825.392000
18650 18652 1 0.13986 296436.400000
18652 18653 1 0.10860 301825.392000
18654 18655 1 0.10860 301825.392000
18655 18656 1 0.13986 296436.400000
18655 18664 1 0.13986 296436.400000
18656 18657 1 0.18850 35430.112000
18656 18658 1 0.13986 296436.400000
18658 18659 1 0.10860 301825.392000
18658 18660 1 0.13986 296436.400000
18660 18661 1 0.10860 301825.392000
18660 18662 1 0.13986 296436.400000
18662 18663 1 0.10860 301825.392000
18662 18664 1 0.13986 296436.400000
18664 18665 1 0.10860 301825.392000
18666 18667 1 0.10860 301825.392000
18667 18668 1 0.13986 296436.400000
18667 18676 1 0.13986 296436.400000
18668 18669 1 0.18850 35430.112000
18668 18670 1 0.13986 296436.400000
18670 18671 1 0.10860 301825.392000
18670 18672 1 0.13986 296436.400000
18672 18673 1 0.10860 301825.392000
18672 18674 1 0.13986 296436.400000
18674 18675 1 0.10860 301825.392000
18674 18676 1 0.13986 296436.400000
18676 18677 1 0.10860 301825.392000
18678 18679 1 0.10860 301825.392000
18679 18680 1 0.13986 296436.400000
18679 18688 1 0.13986 296436.400000
18680 18681 1 0.18850 35430.112000
18680 18682 1 0.13986 296436.400000
18682 18683 1 0.10860 301825.392000
18682 18684 1 0.13986 296436.400000
18684 18685 1 0.10860 301825.392000
18684 18686 1 0.13986 296436.400000
18686 18687 1 0.10860 301825.392000
18686 18688 1 0.13986 296436.400000
18688 18689 1 0.10860 301825.392000
18690 18691 1 0.10860 301825.392000
18691 18692 1 0.13986 296436.400000
18691 18700 1 0.13986 296436.400000
18692 18693 1 0.18850 35430.112000
18692 18694 1 0.13986 296436.400000
18694 18695 1 0.10860 301825.392000
18694 18696 1 0.13986 296436.400000
18696 18697 1 0.10860 301825.392000
18696 18698 1 0.13986 296436.400000
18698 18699 1 0.10860 301825.392000
18698 18700 1 0.13986 296436.400000
18700 18701 1 0.10860 301825.392000
18702 18703 1 0.10860 301825.392000
18703 18704 1 0.13986 296436.400000
18703 18712 1 0.13986 296436.400000
18704 18705 1 0.18850 35430.112000
18704 18706 1 0.13986 296436.400000
18706 18707 1 0.10860 301825.392000
18706 18708 1 0.13986 296436.400000
18708 18709 1 0.10860 301825.392000
18708 18710 1 0.13986 296436.400000
18710 18711 1 0.10860 301825.392000
18710 18712 1 0.13986 296436.400000
18712 18713 1 0.10860 301825.392000
18714 18715 1 0.10860 301825.392000
18715 18716 1 0.13986 296436.400000
18715 18724 1 0.13986 296436.400000
18716 18717 1 0.18850 35430.112000
18716 18718 1 0.13986 296436.400000
18718 18719 1 0.10860 301825.392000
18718 18720 1 0.13986 296436.400000
18720 18721 1 0.10860 301825.392000
18720 18722 1 0.13986 296436.400000
18722 18723 1 0.10860 301825.392000
18722 18724 1 0.13986 296436.400000
18724 18725 1 0.10860 301825.392000
18726 18727 1 0.10860 301825.392000
18727 18728 1 0.13986 296436.400000
18727 18736 1 0.13986 296436.400000
18728 18729 1 0.18850 35430.112000
18728 18730 1 0.13986 296436.400000
18730 18731 1 0.10860 301825.392000
18730 18732 1 0.13986 296436.400000
18732 18733 1 0.10860 301825.392000
18732 18734 1 0.13986 296436.400000
18734 18735 1 0.10860 301825.392000
18734 18736 1 0.13986 296436.400000
18736 18737 1 0.10860 301825.392000
18738 18739 1 0.10860 301825.392000
18739 18740 1 0.13986 296436.400000
18739 18748 1 0.13986 296436.400000
18740 18741 1 0.18850 35430.112000
18740 18742 1 0.13986 296436.400000
18742 18743 1 0.10860 301825.392000
18742 18744 1 0.13986 296436.400000
18744 18745 1 0.10860 301825.392000
18744 18746 1 0.13986 296436.400000
18746 18747 1 0.10860 301825.392000
18746 18748 1 0.13986 296436.400000
18748 18749 1 0.10860 301825.392000
18750 18751 1 0.10860 301825.392000
18751 18752 1 0.13986 296436.400000
18751 18760 1 0.13986 296436.400000
18752 18753 1 0.18850 35430.112000
18752 18754 1 0.13986 296436.400000
18754 18755 1 0.10860 301825.392000
18754 18756 1 0.13986 296436.400000
18756 18757 1 0.10860 301825.392000
18756 18758 1 0.13986 296436.400000
18758 18759 1 0.10860 301825.392000
18758 18760 1 0.13986 296436.400000
18760 18761 1 0.10860 301825.392000
18762 18763 1 0.10860 301825.392000
18763 18764 1 0.13986 296436.400000
18763 18772 1 0.13986 296436.400000
18764 18765 1 0.18850 35430.112000
18764 18766 1 0.13986 296436.400000
18766 18767 1 0.10860 301825.392000
18766 18768 1 0.13986 296436.400000
18768 18769 1 0.10860 301825.392000
18768 18770 1 0.13986 296436.400000
18770 18771 1 0.10860 301825.392000
18770 18772 1 0.13986 296436.400000
18772 18773 1 0.10860 301825.392000
18774 18775 1 0.10860 301825.392000
18775 18776 1 0.13986 296436.400000
18775 18784 1 0.13986 296436.400000
18776 18777 1 0.18850 35430.112000
18776 18778 1 0.13986 296436.400000
18778 18779 1 0.10860 301825.392000
18778 18780 1 0.13986 296436.400000
18780 18781 1 0.10860 301825.392000
18780 18782 1 0.13986 296436.400000
18782 18783 1 0.10860 301825.392000
18782 18784 1 0.13986 296436.400000
18784 18785 1 0.10860 301825.392000
18786 18787 1 0.10860 301825.392000
18787 18788 1 0.13986 296436.400000
18787 18796 1 0.13986 296436.400000
18788 18789 1 0.18850 35430.112000
18788 18790 1 0.13986 296436.400000
18790 18791 1 0.10860 301825.392000
18790 18792 1 0.13986 296436.400000
18792 18793 1 0.10860 301825.392000
18792 18794 1 0.13986 296436.400000
18794 18795 1 0.10860 301825.392000
18794 18796 1 0.13986 296436.400000
18796 18797 1 0.10860 301825.392000
18798 18799 1 0.10860 301825.392000
18799 18800 1 0.13986 296436.400000
18799 18808 1 0.13986 296436.400000
18800 18801 1 0.18850 35430.112000
18800 18802 1 0.13986 296436.400000
18802 18803 1 0.10860 301825.392000
18802 18804 1 0.13986 296436.400000
18804 18805 1 0.10860 301825.392000
18804 18806 1 0.13986 296436.400000
18806 18807 1 0.10860 301825.392000
18806 18808 1 0.13986 296436.400000
18808 18809 1 0.10860 301825.392000
18810 18811 1 0.10860 301825.392000
18811 18812 1 0.13986 296436.400000
18811 18820 1 0.13986 296436.400000
18812 18813 1 0.18850 35430.112000
18812 18814 1 0.13986 296436.400000
18814 18815 1 0.10860 301825.392000
18814 18816 1 0.13986 296436.400000
18816 18817 1 0.10860 301825.392000
18816 18818 1 0.13986 296436.400000
18818 18819 1 0.10860 301825.392000
18818 18820 1 0.13986 296436.400000
18820 18821 1 0.10860 301825.392000
18822 18823 1 0.10860 301825.392000
18823 18824 1 0.13986 296436.400000
18823 18832 1 0.13986 296436.400000
18824 18825 1 0.18850 35430.112000
18824 18826 1 0.13986 296436.400000
18826 18827 1 0.10860 301825.392000
18826 18828 1 0.13986 296436.400000
18828 18829 1 0.10860 301825.392000
18828 18830 1 0.13986 296436.400000
18830 18831 1 0.10860 301825.392000
18830 18832 1 0.13986 296436.400000
18832 18833 1 0.10860 301825.392000
18834 18835 1 0.10860 301825.392000
18835 18836 1 0.13986 296436.400000
18835 18844 1 0.13986 296436.400000
18836 18837 1 0.18850 35430.112000
18836 18838 1 0.13986 296436.400000
18838 18839 1 0.10860 301825.392000
18838 18840 1 0.13986 296436.400000
18840 18841 1 0.10860 301825.392000
18840 18842 1 0.13986 296436.400000
18842 18843 1 0.10860 301825.392000
18842 18844 1 0.13986 296436.400000
18844 18845 1 0.10860 301825.392000
18846 18847 1 0.10860 301825.392000
18847 18848 1 0.13986 296436.400000
18847 18856 1 0.13986 296436.400000
18848 18849 1 0.18850 35430.112000
18848 18850 1 0.13986 296436.400000
18850 18851 1 0.10860 301825.392000
18850 18852 1 0.13986 296436.400000
18852 18853 1 0.10860 301825.392000
18852 18854 1 0.13986 296436.400000
18854 18855 1 0.10860 301825.392000
18854 18856 1 0.13986 296436.400000
18856 18857 1 0.10860 301825.392000
18858 18859 1 0.10860 301825.392000
18859 18860 1 0.13986 296436.400000
18859 18868 1 0.13986 296436.400000
18860 18861 1 0.18850 35430.112000
18860 18862 1 0.13986 296436.400000
18862 18863 1 0.10860 301825.392000
18862 18864 1 0.13986 296436.400000
18864 18865 1 0.10860 301825.392000
18864 18866 1 0.13986 296436.400000
18866 18867 1 0.10860 301825.392000
18866 18868 1 0.13986 296436.400000
18868 18869 1 0.10860 301825.392000
18870 18871 1 0.10860 301825.392000
18871 18872 1 0.13986 296436.400000
18871 18880 1 0.13986 296436.400000
18872 18873 1 0.18850 35430.112000
18872 18874 1 0.13986 296436.400000
18874 18875 1 0.10860 301825.392000
18874 18876 1 0.13986 296436.400000
18876 18877 1 0.10860 301825.392000
18876 18878 1 0.13986 296436.400000
18878 18879 1 0.10860 301825.392000
18878 18880 1 0.13986 296436.400000
18880 18881 1 0.10860 301825.392000
18882 18883 1 0.10860 301825.392000
18883 18884 1 0.13986 296436.400000
18883 18892 1 0.13986 296436.400000
18884 18885 1 0.18850 35430.112000
18884 18886 1 0.13986 296436.400000
18886 18887 1 0.10860 301825.392000
18886 18888 1 0.13986 296436.400000
18888 18889 1 0.10860 301825.392000
18888 18890 1 0.13986 296436.400000
18890 18891 1 0.10860 301825.392000
18890 18892 1 0.13986 296436.400000
18892 18893 1 0.10860 301825.392000
18894 18895 1 0.10860 301825.392000
18895 18896 1 0.13986 296436.400000
18895 18904 1 0.13986 296436.400000
18896 18897 1 0.18850 35430.112000
18896 18898 1 0.13986 296436.400000
18898 18899 1 0.10860 301825.392000
18898 18900 1 0.13986 296436.400000
18900 18901 1 0.10860 301825.392000
18900 18902 1 0.13986 296436.400000
18902 18903 1 0.10860 301825.392000
18902 18904 1 0.13986 296436.400000
18904 18905 1 0.10860 301825.392000
18906 18907 1 0.10860 301825.392000
18907 18908 1 0.13986 296436.400000
18907 18916 1 0.13986 296436.400000
18908 18909 1 0.18850 35430.112000
18908 18910 1 0.13986 296436.400000
18910 18911 1 0.10860 301825.392000
18910 18912 1 0.13986 296436.400000
18912 18913 1 0.10860 301825.392000
18912 18914 1 0.13986 296436.400000
18914 18915 1 0.10860 301825.392000
18914 18916 1 0.13986 296436.400000
18916 18917 1 0.10860 301825.392000
18918 18919 1 0.10860 301825.392000
18919 18920 1 0.13986 296436.400000
18919 18928 1 0.13986 296436.400000
18920 18921 1 0.18850 35430.112000
18920 18922 1 0.13986 296436.400000
18922 18923 1 0.10860 301825.392000
18922 18924 1 0.13986 296436.400000
18924 18925 1 0.10860 301825.392000
18924 18926 1 0.13986 296436.400000
18926 18927 1 0.10860 301825.392000
18926 18928 1 0.13986 296436.400000
18928 18929 1 0.10860 301825.392000
18930 18931 1 0.10860 301825.392000
18931 18932 1 0.13986 296436.400000
18931 18940 1 0.13986 296436.400000
18932 18933 1 0.18850 35430.112000
18932 18934 1 0.13986 296436.400000
18934 18935 1 0.10860 301825.392000
18934 18936 1 0.13986 296436.400000
18936 18937 1 0.10860 301825.392000
18936 18938 1 0.13986 296436.400000
18938 18939 1 0.10860 301825.392000
18938 18940 1 0.13986 296436.400000
18940 18941 1 0.10860 301825.392000
18942 18943 1 0.10860 301825.392000
18943 18944 1 0.13986 296436.400000
18943 18952 1 0.13986 296436.400000
18944 18945 1 0.18850 35430.112000
18944 18946 1 0.13986 296436.400000
18946 18947 1 0.10860 301825.392000
18946 18948 1 0.13986 296436.400000
18948 18949 1 0.10860 301825.392000
18948 18950 1 0.13986 296436.400000
18950 18951 1 0.10860 301825.392000
18950 18952 1 0.13986 296436.400000
18952 18953 1 0.10860 301825.392000
18954 18955 1 0.10860 301825.392000
18955 18956 1 0.13986 296436.400000
18955 18964 1 0.13986 296436.400000
18956 18957 1 0.18850 35430.112000
18956 18958 1 0.13986 296436.400000
18958 18959 1 0.10860 301825.392000
18958 18960 1 0.13986 296436.400000
18960 18961 1 0.10860 301825.392000
18960 18962 1 0.13986 296436.400000
18962 18963 1 0.10860 301825.392000
18962 18964 1 0.13986 296436.400000
18964 18965 1 0.10860 301825.392000
18966 18967 1 0.10860 301825.392000
18967 18968 1 0.13986 296436.400000
18967 18976 1 0.13986 296436.400000
18968 18969 1 0.18850 35430.112000
18968 18970 1 0.13986 296436.400000
18970 18971 1 0.10860 301825.392000
18970 18972 1 0.13986 296436.400000
18972 18973 1 0.10860 301825.392000
18972 18974 1 0.13986 296436.400000
18974 18975 1 0.10860 301825.392000
18974 18976 1 0.13986 296436.400000
18976 18977 1 0.10860 301825.392000
18978 18979 1 0.10860 301825.392000
18979 18980 1 0.13986 296436.400000
18979 18988 1 0.13986 296436.400000
18980 18981 1 0.18850 35430.112000
18980 18982 1 0.13986 296436.400000
18982 18983 1 0.10860 301825.392000
18982 18984 1 0.13986 296436.400000
18984 18985 1 0.10860 301825.392000
18984 18986 1 0.13986 296436.400000
18986 18987 1 0.10860 301825.392000
18986 18988 1 0.13986 296436.400000
18988 18989 1 0.10860 301825.392000
18990 18991 1 0.10860 301825.392000
18991 18992 1 0.13986 296436.400000
18991 19000 1 0.13986 296436.400000
18992 18993 1 0.18850 35430.112000
18992 18994 1 0.13986 296436.400000
18994 18995 1 0.10860 301825.392000
18994 18996 1 0.13986 296436.400000
18996 18997 1 0.10860 301825.392000
18996 18998 1 0.13986 296436.400000
18998 18999 1 0.10860 301825.392000
18998 19000 1 0.13986 296436.400000
19000 19001 1 0.10860 301825.392000
19002 19003 1 0.10860 301825.392000
19003 19004 1 0.13986 296436.400000
19003 19012 1 0.13986 296436.400000
19004 19005 1 0.18850 35430.112000
19004 19006 1 0.13986 296436.400000
19006 19007 1 0.10860 301825.392000
19006 19008 1 0.13986 296436.400000
19008 19009 1 0.10860 301825.392000
19008 19010 1 0.13986 296436.400000
19010 19011 1 0.10860 301825.392000
19010 19012 1 0.13986 296436.400000
19012 19013 1 0.10860 301825.392000
19014 19015 1 0.10860 301825.392000
19015 19016 1 0.13986 296436.400000
19015 19024 1 0.13986 296436.400000
19016 19017 1 0.18850 35430.112000
19016 19018 1 0.13986 296436.400000
19018 19019 1 0.10860 301825.392000
19018 19020 1 0.13986 296436.400000
19020 19021 1 0.10860 301825.392000
19020 19022 1 0.13986 296436.400000
19022 19023 1 0.10860 301825.392000
19022 19024 1 0.13986 296436.400000
19024 19025 1 0.10860 301825.392000
19026 19027 1 0.10860 301825.392000
19027 19028 1 0.13986 296436.400000
19027 19036 1 0.13986 296436.400000
19028 19029 1 0.18850 35430.112000
19028 19030 1 0.13986 296436.400000
19030 19031 1 0.10860 301825.392000
19030 19032 1 0.13986 296436.400000
19032 19033 1 0.10860 301825.392000
19032 19034 1 0.13986 296436.400000
19034 19035 1 0.10860 301825.392000
19034 19036 1 0.13986 296436.400000
19036 19037 1 0.10860 301825.392000
19038 19039 1 0.10860 301825.392000
19039 19040 1 0.13986 296436.400000
19039 19048 1 0.13986 296436.400000
19040 19041 1 0.18850 35430.112000
19040 19042 1 0.13986 296436.400000
19042 19043 1 0.10860 301825.392000
19042 19044 1 0.13986 296436.400000
19044 19045 1 0.10860 301825.392000
19044 19046 1 0.13986 296436.400000
19046 19047 1 0.10860 301825.392000
19046 19048 1 0.13986 296436.400000
19048 19049 1 0.10860 301825.392000
19050 19051 1 0.10860 301825.392000
19051 19052 1 0.13986 296436.400000
19051 19060 1 0.13986 296436.400000
19052 19053 1 0.18850 35430.112000
19052 19054 1 0.13986 296436.400000
19054 19055 1 0.10860 301825.392000
19054 19056 1 0.13986 296436.400000
19056 19057 1 0.10860 301825.392000
19056 19058 1 0.13986 296436.400000
19058 19059 1 0.10860 301825.392000
19058 19060 1 0.13986 296436.400000
19060 19061 1 0.10860 301825.392000
19062 19063 1 0.10860 301825.392000
19063 19064 1 0.13986 296436.400000
19063 19072 1 0.13986 296436.400000
19064 19065 1 0.18850 35430.112000
19064 19066 1 0.13986 296436.400000
19066 19067 1 0.10860 301825.392000
19066 19068 1 0.13986 296436.400000
19068 19069 1 0.10860 301825.392000
19068 19070 1 0.13986 296436.400000
19070 19071 1 0.10860 301825.392000
19070 19072 1 0.13986 296436.400000
19072 19073 1 0.10860 301825.392000
19074 19075 1 0.10860 301825.392000
19075 19076 1 0.13986 296436.400000
19075 19084 1 0.13986 296436.400000
19076 19077 1 0.18850 35430.112000
19076 19078 1 0.13986 296436.400000
19078 19079 1 0.10860 301825.392000
19078 19080 1 0.13986 296436.400000
19080 19081 1 0.10860 301825.392000
19080 19082 1 0.13986 296436.400000
19082 19083 1 0.10860 301825.392000
19082 19084 1 0.13986 296436.400000
19084 19085 1 0.10860 301825.392000
19086 19087 1 0.10860 301825.392000
19087 19088 1 0.13986 296436.400000
19087 19096 1 0.13986 296436.400000
19088 19089 1 0.18850 35430.112000
19088 19090 1 0.13986 296436.400000
19090 19091 1 0.10860 301825.392000
19090 19092 1 0.13986 296436.400000
19092 19093 1 0.10860 301825.392000
19092 19094 1 0.13986 296436.400000
19094 19095 1 0.10860 301825.392000
19094 19096 1 0.13986 296436.400000
19096 19097 1 0.10860 301825.392000
19098 19099 1 0.10860 301825.392000
19099 19100 1 0.13986 296436.400000
19099 19108 1 0.13986 296436.400000
19100 19101 1 0.18850 35430.112000
19100 19102 1 0.13986 296436.400000
19102 19103 1 0.10860 301825.392000
19102 19104 1 0.13986 296436.400000
19104 19105 1 0.10860 301825.392000
19104 19106 1 0.13986 296436.400000
19106 19107 1 0.10860 301825.392000
19106 19108 1 0.13986 296436.400000
19108 19109 1 0.10860 301825.392000
19110 19111 1 0.10860 301825.392000
19111 19112 1 0.13986 296436.400000
19111 19120 1 0.13986 296436.400000
19112 19113 1 0.18850 35430.112000
19112 19114 1 0.13986 296436.400000
19114 19115 1 0.10860 301825.392000
19114 19116 1 0.13986 296436.400000
19116 19117 1 0.10860 301825.392000
19116 19118 1 0.13986 296436.400000
19118 19119 1 0.10860 301825.392000
19118 19120 1 0.13986 296436.400000
19120 19121 1 0.10860 301825.392000
19122 19123 1 0.10860 301825.392000
19123 19124 1 0.13986 296436.400000
19123 19132 1 0.13986 296436.400000
19124 19125 1 0.18850 35430.112000
19124 19126 1 0.13986 296436.400000
19126 19127 1 0.10860 301825.392000
19126 19128 1 0.13986 296436.400000
19128 19129 1 0.10860 301825.392000
19128 19130 1 0.13986 296436.400000
19130 19131 1 0.10860 301825.392000
19130 19132 1 0.13986 296436.400000
19132 19133 1 0.10860 301825.392000
19134 19135 1 0.10860 301825.392000
19135 19136 1 0.13986 296436.400000
19135 19144 1 0.13986 296436.400000
19136 19137 1 0.18850 35430.112000
19136 19138 1 0.13986 296436.400000
19138 19139 1 0.10860 301825.392000
19138 19140 1 0.13986 296436.400000
19140 19141 1 0.10860 301825.392000
19140 19142 1 0.13986 296436.400000
19142 19143 1 0.10860 301825.392000
19142 19144 1 0.13986 296436.400000
19144 19145 1 0.10860 301825.392000
19146 19147 1 0.10860 301825.392000
19147 19148 1 0.13986 296436.400000
19147 19156 1 0.13986 296436.400000
19148 19149 1 0.18850 35430.112000
19148 19150 1 0.13986 296436.400000
19150 19151 1 0.10860 301825.392000
19150 19152 1 0.13986 296436.400000
19152 19153 1 0.10860 301825.392000
19152 19154 1 0.13986 296436.400000
19154 19155 1 0.10860 301825.392000
19154 19156 1 0.13986 296436.400000
19156 19157 1 0.10860 301825.392000
19158 19159 1 0.10860 301825.392000
19159 19160 1 0.13986 296436.400000
19159 19168 1 0.13986 296436.400000
19160 19161 1 0.18850 35430.112000
19160 19162 1 0.13986 296436.400000
19162 19163 1 0.10860 301825.392000
19162 19164 1 0.13986 296436.400000
19164 19165 1 0.10860 301825.392000
19164 19166 1 0.13986 296436.400000
19166 19167 1 0.10860 301825.392000
19166 19168 1 0.13986 296436.400000
19168 19169 1 0.10860 301825.392000
19170 19171 1 0.10860 301825.392000
19171 19172 1 0.13986 296436.400000
19171 19180 1 0.13986 296436.400000
19172 19173 1 0.18850 35430.112000
19172 19174 1 0.13986 296436.400000
19174 19175 1 0.10860 301825.392000
19174 19176 1 0.13986 296436.400000
19176 19177 1 0.10860 301825.392000
19176 19178 1 0.13986 296436.400000
19178 19179 1 0.10860 301825.392000
19178 19180 1 0.13986 296436.400000
19180 19181 1 0.10860 301825.392000
19182 19183 1 0.10860 301825.392000
19183 19184 1 0.13986 296436.400000
19183 19192 1 0.13986 296436.400000
19184 19185 1 0.18850 35430.112000
19184 19186 1 0.13986 296436.400000
19186 19187 1 0.10860 301825.392000
19186 19188 1 0.13986 296436.400000
19188 19189 1 0.10860 301825.392000
19188 19190 1 0.13986 296436.400000
19190 19191 1 0.10860 301825.392000
19190 19192 1 0.13986 296436.400000
19192 19193 1 0.10860 301825.392000
19194 19195 1 0.10860 301825.392000
19195 19196 1 0.13986 296436.400000
19195 19204 1 0.13986 296436.400000
19196 19197 1 0.18850 35430.112000
19196 19198 1 0.13986 296436.400000
19198 19199 1 0.10860 301825.392000
19198 19200 1 0.13986 296436.400000
19200 19201 1 0.10860 301825.392000
19200 19202 1 0.13986 296436.400000
19202 19203 1 0.10860 301825.392000
19202 19204 1 0.13986 296436.400000
19204 19205 1 0.10860 301825.392000
19206 19207 1 0.10860 301825.392000
19207 19208 1 0.13986 296436.400000
19207 19216 1 0.13986 296436.400000
19208 19209 1 0.18850 35430.112000
19208 19210 1 0.13986 296436.400000
19210 19211 1 0.10860 301825.392000
19210 19212 1 0.13986 296436.400000
19212 19213 1 0.10860 301825.392000
19212 19214 1 0.13986 296436.400000
19214 19215 1 0.10860 301825.392000
19214 19216 1 0.13986 296436.400000
19216 19217 1 0.10860 301825.392000
19218 19219 1 0.10860 301825.392000
19219 19220 1 0.13986 296436.400000
19219 19228 1 0.13986 296436.400000
19220 19221 1 0.18850 35430.112000
19220 19222 1 0.13986 296436.400000
19222 19223 1 0.10860 301825.392000
19222 19224 1 0.13986 296436.400000
19224 19225 1 0.10860 301825.392000
19224 19226 1 0.13986 296436.400000
19226 19227 1 0.10860 301825.392000
19226 19228 1 0.13986 296436.400000
19228 19229 1 0.10860 301825.392000
19230 19231 1 0.10860 301825.392000
19231 19232 1 0.13986 296436.400000
19231 19240 1 0.13986 296436.400000
19232 19233 1 0.18850 35430.112000
19232 19234 1 0.13986 296436.400000
19234 19235 1 0.10860 301825.392000
19234 19236 1 0.13986 296436.400000
19236 19237 1 0.10860 301825.392000
19236 19238 1 0.13986 296436.400000
19238 19239 1 0.10860 301825.392000
19238 19240 1 0.13986 296436.400000
19240 19241 1 0.10860 301825.392000
19242 19243 1 0.10860 301825.392000
19243 19244 1 0.13986 296436.400000
19243 19252 1 0.13986 296436.400000
19244 19245 1 0.18850 35430.112000
19244 19246 1 0.13986 296436.400000
19246 19247 1 0.10860 301825.392000
19246 19248 1 0.13986 296436.400000
19248 19249 1 0.10860 301825.392000
19248 19250 1 0.13986 296436.400000
19250 19251 1 0.10860 301825.392000
19250 19252 1 0.13986 296436.400000
19252 19253 1 0.10860 301825.392000
19254 19255 1 0.10860 301825.392000
19255 19256 1 0.13986 296436.400000
19255 19264 1 0.13986 296436.400000
19256 19257 1 0.18850 35430.112000
19256 19258 1 0.13986 296436.400000
19258 19259 1 0.10860 301825.392000
19258 19260 1 0.13986 296436.400000
19260 19261 1 0.10860 301825.392000
19260 19262 1 0.13986 296436.400000
19262 19263 1 0.10860 301825.392000
19262 19264 1 0.13986 296436.400000
19264 19265 1 0.10860 301825.392000
19266 19267 1 0.10860 301825.392000
19267 19268 1 0.13986 296436.400000
19267 19276 1 0.13986 296436.400000
19268 19269 1 0.18850 35430.112000
19268 19270 1 0.13986 296436.400000
19270 19271 1 0.10860 301825.392000
19270 19272 1 0.13986 296436.400000
19272 19273 1 0.10860 301825.392000
19272 19274 1 0.13986 296436.400000
19274 19275 1 0.10860 301825.392000
19274 19276 1 0.13986 296436.400000
19276 19277 1 0.10860 301825.392000
19278 19279 1 0.10860 301825.392000
19279 19280 1 0.13986 296436.400000
19279 19288 1 0.13986 296436.400000
19280 19281 1 0.18850 35430.112000
19280 19282 1 0.13986 296436.400000
19282 19283 1 0.10860 301825.392000
19282 19284 1 0.13986 296436.400000
19284 19285 1 0.10860 301825.392000
19284 19286 1 0.13986 296436.400000
19286 19287 1 0.10860 301825.392000
19286 19288 1 0.13986 296436.400000
19288 19289 1 0.10860 301825.392000
19290 19291 1 0.10860 301825.392000
19291 19292 1 0.13986 296436.400000
19291 19300 1 0.13986 296436.400000
19292 19293 1 0.18850 35430.112000
19292 19294 1 0.13986 296436.400000
19294 19295 1 0.10860 301825.392000
19294 19296 1 0.13986 296436.400000
19296 19297 1 0.10860 301825.392000
19296 19298 1 0.13986 296436.400000
19298 19299 1 0.10860 301825.392000
19298 19300 1 0.13986 296436.400000
19300 19301 1 0.10860 301825.392000
19302 19303 1 0.10860 301825.392000
19303 19304 1 0.13986 296436.400000
19303 19312 1 0.13986 296436.400000
19304 19305 1 0.18850 35430.112000
19304 19306 1 0.13986 296436.400000
19306 19307 1 0.10860 301825.392000
19306 19308 1 0.13986 296436.400000
19308 19309 1 0.10860 301825.392000
19308 19310 1 0.13986 296436.400000
19310 19311 1 0.10860 301825.392000
19310 19312 1 0.13986 296436.400000
19312 19313 1 0.10860 301825.392000
19314 19315 1 0.10860 301825.392000
19315 19316 1 0.13986 296436.400000
19315 19324 1 0.13986 296436.400000
19316 19317 1 0.18850 35430.112000
19316 19318 1 0.13986 296436.400000
19318 19319 1 0.10860 301825.392000
19318 19320 1 0.13986 296436.400000
19320 19321 1 0.10860 301825.392000
19320 19322 1 0.13986 296436.400000
19322 19323 1 0.10860 301825.392000
19322 19324 1 0.13986 296436.400000
19324 19325 1 0.10860 301825.392000
19326 19327 1 0.10860 301825.392000
19327 19328 1 0.13986 296436.400000
19327 19336 1 0.13986 296436.400000
19328 19329 1 0.18850 35430.112000
19328 19330 1 0.13986 296436.400000
19330 19331 1 0.10860 301825.392000
19330 19332 1 0.13986 296436.400000
19332 19333 1 0.10860 301825.392000
19332 19334 1 0.13986 296436.400000
19334 19335 1 0.10860 301825.392000
19334 19336 1 0.13986 296436.400000
19336 19337 1 0.10860 301825.392000
19338 19339 1 0.10860 301825.392000
19339 19340 1 0.13986 296436.400000
19339 19348 1 0.13986 296436.400000
19340 19341 1 0.18850 35430.112000
19340 19342 1 0.13986 296436.400000
19342 19343 1 0.10860 301825.392000
19342 19344 1 0.13986 296436.400000
19344 19345 1 0.10860 301825.392000
19344 19346 1 0.13986 296436.400000
19346 19347 1 0.10860 301825.392000
19346 19348 1 0.13986 296436.400000
19348 19349 1 0.10860 301825.392000
19350 19351 1 0.10860 301825.392000
19351 19352 1 0.13986 296436.400000
19351 19360 1 0.13986 296436.400000
19352 19353 1 0.18850 35430.112000
19352 19354 1 0.13986 296436.400000
19354 19355 1 0.10860 301825.392000
19354 19356 1 0.13986 296436.400000
19356 19357 1 0.10860 301825.392000
19356 19358 1 0.13986 296436.400000
19358 19359 1 0.10860 301825.392000
19358 19360 1 0.13986 296436.400000
19360 19361 1 0.10860 301825.392000
19362 19363 1 0.10860 301825.392000
19363 19364 1 0.13986 296436.400000
19363 19372 1 0.13986 296436.400000
19364 19365 1 0.18850 35430.112000
19364 19366 1 0.13986 296436.400000
19366 19367 1 0.10860 301825.392000
19366 19368 1 0.13986 296436.400000
19368 19369 1 0.10860 301825.392000
19368 19370 1 0.13986 296436.400000
19370 19371 1 0.10860 301825.392000
19370 19372 1 0.13986 296436.400000
19372 19373 1 0.10860 301825.392000
19374 19375 1 0.10860 301825.392000
19375 19376 1 0.13986 296436.400000
19375 19384 1 0.13986 296436.400000
19376 19377 1 0.18850 35430.112000
19376 19378 1 0.13986 296436.400000
19378 19379 1 0.10860 301825.392000
19378 19380 1 0.13986 296436.400000
19380 19381 1 0.10860 301825.392000
19380 19382 1 0.13986 296436.400000
19382 19383 1 0.10860 301825.392000
19382 19384 1 0.13986 296436.400000
19384 19385 1 0.10860 301825.392000
19386 19387 1 0.10860 301825.392000
19387 19388 1 0.13986 296436.400000
19387 19396 1 0.13986 296436.400000
19388 19389 1 0.18850 35430.112000
19388 19390 1 0.13986 296436.400000
19390 19391 1 0.10860 301825.392000
19390 19392 1 0.13986 296436.400000
19392 19393 1 0.10860 301825.392000
19392 19394 1 0.13986 296436.400000
19394 19395 1 0.10860 301825.392000
19394 19396 1 0.13986 296436.400000
19396 19397 1 0.10860 301825.392000
19398 19399 1 0.10860 301825.392000
19399 19400 1 0.13986 296436.400000
19399 19408 1 0.13986 296436.400000
19400 19401 1 0.18850 35430.112000
19400 19402 1 0.13986 296436.400000
19402 19403 1 0.10860 301825.392000
19402 19404 1 0.13986 296436.400000
19404 19405 1 0.10860 301825.392000
19404 19406 1 0.13986 296436.400000
19406 19407 1 0.10860 301825.392000
19406 19408 1 0.13986 296436.400000
19408 19409 1 0.10860 301825.392000
19410 19411 1 0.10860 301825.392000
19411 19412 1 0.13986 296436.400000
19411 19420 1 0.13986 296436.400000
19412 19413 1 0.18850 35430.112000
19412 19414 1 0.13986 296436.400000
19414 19415 1 0.10860 301825.392000
19414 19416 1 0.13986 296436.400000
19416 19417 1 0.10860 301825.392000
19416 19418 1 0.13986 296436.400000
19418 19419 1 0.10860 301825.392000
19418 19420 1 0.13986 296436.400000
19420 19421 1 0.10860 301825.392000
19422 19423 1 0.10860 301825.392000
19423 19424 1 0.13986 296436.400000
19423 19432 1 0.13986 296436.400000
19424 19425 1 0.18850 35430.112000
19424 19426 1 0.13986 296436.400000
19426 19427 1 0.10860 301825.392000
19426 19428 1 0.13986 296436.400000
19428 19429 1 0.10860 301825.392000
19428 19430 1 0.13986 296436.400000
19430 19431 1 0.10860 301825.392000
19430 19432 1 0.13986 296436.400000
19432 19433 1 0.10860 301825.392000
19434 19435 1 0.10860 301825.392000
19435 19436 1 0.13986 296436.400000
19435 19444 1 0.13986 296436.400000
19436 19437 1 0.18850 35430.112000
19436 19438 1 0.13986 296436.400000
19438 19439 1 0.10860 301825.392000
19438 19440 1 0.13986 296436.400000
19440 19441 1 0.10860 301825.392000
19440 19442 1 0.13986 296436.400000
19442 19443 1 0.10860 301825.392000
19442 19444 1 0.13986 296436.400000
19444 19445 1 0.10860 301825.392000
19446 19447 1 0.10860 301825.392000
19447 19448 1 0.13986 296436.400000
19447 19456 1 0.13986 296436.400000
19448 19449 1 0.18850 35430.112000
19448 19450 1 0.13986 296436.400000
19450 19451 1 0.10860 301825.392000
19450 19452 1 0.13986 296436.400000
19452 19453 1 0.10860 301825.392000
19452 19454 1 0.13986 296436.400000
19454 19455 1 0.10860 301825.392000
19454 19456 1 0.13986 296436.400000
19456 19457 1 0.10860 301825.392000
19458 19459 1 0.10860 301825.392000
19459 19460 1 0.13986 296436.400000
19459 19468 1 0.13986 296436.400000
19460 19461 1 0.18850 35430.112000
19460 19462 1 0.13986 296436.400000
19462 19463 1 0.10860 301825.392000
19462 19464 1 0.13986 296436.400000
19464 19465 1 0.10860 301825.392000
19464 19466 1 0.13986 296436.400000
19466 19467 1 0.10860 301825.392000
19466 19468 1 0.13986 296436.400000
19468 19469 1 0.10860 301825.392000
19470 19471 1 0.10860 301825.392000
19471 19472 1 0.13986 296436.400000
19471 19480 1 0.13986 296436.400000
19472 19473 1 0.18850 35430.112000
19472 19474 1 0.13986 296436.400000
19474 19475 1 0.10860 301825.392000
19474 19476 1 0.13986 296436.400000
19476 19477 1 0.10860 301825.392000
19476 19478 1 0.13986 296436.400000
19478 19479 1 0.10860 301825.392000
19478 19480 1 0.13986 296436.400000
19480 19481 1 0.10860 301825.392000
19482 19483 1 0.10860 301825.392000
19483 19484 1 0.13986 296436.400000
19483 19492 1 0.13986 296436.400000
19484 19485 1 0.18850 35430.112000
19484 19486 1 0.13986 296436.400000
19486 19487 1 0.10860 301825.392000
19486 19488 1 0.13986 296436.400000
19488 19489 1 0.10860 301825.392000
19488 19490 1 0.13986 296436.400000
19490 19491 1 0.10860 301825.392000
19490 19492 1 0.13986 296436.400000
19492 19493 1 0.10860 301825.392000
19494 19495 1 0.10860 301825.392000
19495 19496 1 0.13986 296436.400000
19495 19504 1 0.13986 296436.400000
19496 19497 1 0.18850 35430.112000
19496 19498 1 0.13986 296436.400000
19498 19499 1 0.10860 301825.392000
19498 19500 1 0.13986 296436.400000
19500 19501 1 0.10860 301825.392000
19500 19502 1 0.13986 296436.400000
19502 19503 1 0.10860 301825.392000
19502 19504 1 0.13986 296436.400000
19504 19505 1 0.10860 301825.392000
19506 19507 1 0.10860 301825.392000
19507 19508 1 0.13986 296436.400000
19507 19516 1 0.13986 296436.400000
19508 19509 1 0.18850 35430.112000
19508 19510 1 0.13986 296436.400000
19510 19511 1 0.10860 301825.392000
19510 19512 1 0.13986 296436.400000
19512 19513 1 0.10860 301825.392000
19512 19514 1 0.13986 296436.400000
19514 19515 1 0.10860 301825.392000
19514 19516 1 0.13986 296436.400000
19516 19517 1 0.10860 301825.392000
19518 19519 1 0.10860 301825.392000
19519 19520 1 0.13986 296436.400000
19519 19528 1 0.13986 296436.400000
19520 19521 1 0.18850 35430.112000
19520 19522 1 0.13986 296436.400000
19522 19523 1 0.10860 301825.392000
19522 19524 1 0.13986 296436.400000
19524 19525 1 0.10860 301825.392000
19524 19526 1 0.13986 296436.400000
19526 19527 1 0.10860 301825.392000
19526 19528 1 0.13986 296436.400000
19528 19529 1 0.10860 301825.392000
19530 19531 1 0.10860 301825.392000
19531 19532 1 0.13986 296436.400000
19531 19540 1 0.13986 296436.400000
19532 19533 1 0.18850 35430.112000
19532 19534 1 0.13986 296436.400000
19534 19535 1 0.10860 301825.392000
19534 19536 1 0.13986 296436.400000
19536 19537 1 0.10860 301825.392000
19536 19538 1 0.13986 296436.400000
19538 19539 1 0.10860 301825.392000
19538 19540 1 0.13986 296436.400000
19540 19541 1 0.10860 301825.392000
19542 19543 1 0.10860 301825.392000
19543 19544 1 0.13986 296436.400000
19543 19552 1 0.13986 296436.400000
19544 19545 1 0.18850 35430.112000
19544 19546 1 0.13986 296436.400000
19546 19547 1 0.10860 301825.392000
19546 19548 1 0.13986 296436.400000
19548 19549 1 0.10860 301825.392000
19548 19550 1 0.13986 296436.400000
19550 19551 1 0.10860 301825.392000
19550 19552 1 0.13986 296436.400000
19552 19553 1 0.10860 301825.392000
19554 19555 1 0.10860 301825.392000
19555 19556 1 0.13986 296436.400000
19555 19564 1 0.13986 296436.400000
19556 19557 1 0.18850 35430.112000
19556 19558 1 0.13986 296436.400000
19558 19559 1 0.10860 301825.392000
19558 19560 1 0.13986 296436.400000
19560 19561 1 0.10860 301825.392000
19560 19562 1 0.13986 296436.400000
19562 19563 1 0.10860 301825.392000
19562 19564 1 0.13986 296436.400000
19564 19565 1 0.10860 301825.392000
19566 19567 1 0.10860 301825.392000
19567 19568 1 0.13986 296436.400000
19567 19576 1 0.13986 296436.400000
19568 19569 1 0.18850 35430.112000
19568 19570 1 0.13986 296436.400000
19570 19571 1 0.10860 301825.392000
19570 19572 1 0.13986 296436.400000
19572 19573 1 0.10860 301825.392000
19572 19574 1 0.13986 296436.400000
19574 19575 1 0.10860 301825.392000
19574 19576 1 0.13986 296436.400000
19576 19577 1 0.10860 301825.392000
19578 19579 1 0.10860 301825.392000
19579 19580 1 0.13986 296436.400000
19579 19588 1 0.13986 296436.400000
19580 19581 1 0.18850 35430.112000
19580 19582 1 0.13986 296436.400000
19582 19583 1 0.10860 301825.392000
19582 19584 1 0.13986 296436.400000
19584 19585 1 0.10860 301825.392000
19584 19586 1 0.13986 296436.400000
19586 19587 1 0.10860 301825.392000
19586 19588 1 0.13986 296436.400000
19588 19589 1 0.10860 301825.392000
19590 19591 1 0.10860 301825.392000
19591 19592 1 0.13986 296436.400000
19591 19600 1 0.13986 296436.400000
19592 19593 1 0.18850 35430.112000
19592 19594 1 0.13986 296436.400000
19594 19595 1 0.10860 301825.392000
19594 19596 1 0.13986 296436.400000
19596 19597 1 0.10860 301825.392000
19596 19598 1 0.13986 296436.400000
19598 19599 1 0.10860 301825.392000
19598 19600 1 0.13986 296436.400000
19600 19601 1 0.10860 301825.392000
19602 19603 1 0.10860 301825.392000
19603 19604 1 0.13986 296436.400000
19603 19612 1 0.13986 296436.400000
19604 19605 1 0.18850 35430.112000
19604 19606 1 0.13986 296436.400000
19606 19607 1 0.10860 301825.392000
19606 19608 1 0.13986 296436.400000
19608 19609 1 0.10860 301825.392000
19608 19610 1 0.13986 296436.400000
19610 19611 1 0.10860 301825.392000
19610 19612 1 0.13986 296436.400000
19612 19613 1 0.10860 301825.392000
19614 19615 1 0.10860 301825.392000
19615 19616 1 0.13986 296436.400000
19615 19624 1 0.13986 296436.400000
19616 19617 1 0.18850 35430.112000
19616 19618 1 0.13986 296436.400000
19618 19619 1 0.10860 301825.392000
19618 19620 1 0.13986 296436.400000
19620 19621 1 0.10860 301825.392000
19620 19622 1 0.13986 296436.400000
19622 19623 1 0.10860 301825.392000
19622 19624 1 0.13986 296436.400000
19624 19625 1 0.10860 301825.392000
19626 19627 1 0.10860 301825.392000
19627 19628 1 0.13986 296436.400000
19627 19636 1 0.13986 296436.400000
19628 19629 1 0.18850 35430.112000
19628 19630 1 0.13986 296436.400000
19630 19631 1 0.10860 301825.392000
19630 19632 1 0.13986 296436.400000
19632 19633 1 0.10860 301825.392000
19632 19634 1 0.13986 296436.400000
19634 19635 1 0.10860 301825.392000
19634 19636 1 0.13986 296436.400000
19636 19637 1 0.10860 301825.392000
19638 19639 1 0.10860 301825.392000
19639 19640 1 0.13986 296436.400000
19639 19648 1 0.13986 296436.400000
19640 19641 1 0.18850 35430.112000
19640 19642 1 0.13986 296436.400000
19642 19643 1 0.10860 301825.392000
19642 19644 1 0.13986 296436.400000
19644 19645 1 0.10860 301825.392000
19644 19646 1 0.13986 296436.400000
19646 19647 1 0.10860 301825.392000
19646 19648 1 0.13986 296436.400000
19648 19649 1 0.10860 301825.392000
19650 19651 1 0.10860 301825.392000
19651 19652 1 0.13986 296436.400000
19651 19660 1 0.13986 296436.400000
19652 19653 1 0.18850 35430.112000
19652 19654 1 0.13986 296436.400000
19654 19655 1 0.10860 301825.392000
19654 19656 1 0.13986 296436.400000
19656 19657 1 0.10860 301825.392000
19656 19658 1 0.13986 296436.400000
19658 19659 1 0.10860 301825.392000
19658 19660 1 0.13986 296436.400000
19660 19661 1 0.10860 301825.392000
19662 19663 1 0.10860 301825.392000
19663 19664 1 0.13986 296436.400000
19663 19672 1 0.13986 296436.400000
19664 19665 1 0.18850 35430.112000
19664 19666 1 0.13986 296436.400000
19666 19667 1 0.10860 301825.392000
19666 19668 1 0.13986 296436.400000
19668 19669 1 0.10860 301825.392000
19668 19670 1 0.13986 296436.400000
19670 19671 1 0.10860 301825.392000
19670 19672 1 0.13986 296436.400000
19672 19673 1 0.10860 301825.392000
19674 19675 1 0.10860 301825.392000
19675 19676 1 0.13986 296436.400000
19675 19684 1 0.13986 296436.400000
19676 19677 1 0.18850 35430.112000
19676 19678 1 0.13986 296436.400000
19678 19679 1 0.10860 301825.392000
19678 19680 1 0.13986 296436.400000
19680 19681 1 0.10860 301825.392000
19680 19682 1 0.13986 296436.400000
19682 19683 1 0.10860 301825.392000
19682 19684 1 0.13986 296436.400000
19684 19685 1 0.10860 301825.392000
19686 19687 1 0.10860 301825.392000
19687 19688 1 0.13986 296436.400000
19687 19696 1 0.13986 296436.400000
19688 19689 1 0.18850 35430.112000
19688 19690 1 0.13986 296436.400000
19690 19691 1 0.10860 301825.392000
19690 19692 1 0.13986 296436.400000
19692 19693 1 0.10860 301825.392000
19692 19694 1 0.13986 296436.400000
19694 19695 1 0.10860 301825.392000
19694 19696 1 0.13986 296436.400000
19696 19697 1 0.10860 301825.392000
19698 19699 1 0.10860 301825.392000
19699 19700 1 0.13986 296436.400000
19699 19708 1 0.13986 296436.400000
19700 19701 1 0.18850 35430.112000
19700 19702 1 0.13986 296436.400000
19702 19703 1 0.10860 301825.392000
19702 19704 1 0.13986 296436.400000
19704 19705 1 0.10860 301825.392000
19704 19706 1 0.13986 296436.400000
19706 19707 1 0.10860 301825.392000
19706 19708 1 0.13986 296436.400000
19708 19709 1 0.10860 301825.392000
19710 19711 1 0.10860 301825.392000
19711 19712 1 0.13986 296436.400000
19711 19720 1 0.13986 296436.400000
19712 19713 1 0.18850 35430.112000
19712 19714 1 0.13986 296436.400000
19714 19715 1 0.10860 301825.392000
19714 19716 1 0.13986 296436.400000
19716 19717 1 0.10860 301825.392000
19716 19718 1 0.13986 296436.400000
19718 19719 1 0.10860 301825.392000
19718 19720 1 0.13986 296436.400000
19720 19721 1 0.10860 301825.392000
19722 19723 1 0.10860 301825.392000
19723 19724 1 0.13986 296436.400000
19723 19732 1 0.13986 296436.400000
19724 19725 1 0.18850 35430.112000
19724 19726 1 0.13986 296436.400000
19726 19727 1 0.10860 301825.392000
19726 19728 1 0.13986 296436.400000
19728 19729 1 0.10860 301825.392000
19728 19730 1 0.13986 296436.400000
19730 19731 1 0.10860 301825.392000
19730 19732 1 0.13986 296436.400000
19732 19733 1 0.10860 301825.392000
19734 19735 1 0.10860 301825.392000
19735 19736 1 0.13986 296436.400000
19735 19744 1 0.13986 296436.400000
19736 19737 1 0.18850 35430.112000
19736 19738 1 0.13986 296436.400000
19738 19739 1 0.10860 301825.392000
19738 19740 1 0.13986 296436.400000
19740 19741 1 0.10860 301825.392000
19740 19742 1 0.13986 296436.400000
19742 19743 1 0.10860 301825.392000
19742 19744 1 0.13986 296436.400000
19744 19745 1 0.10860 301825.392000
19746 19747 1 0.10860 301825.392000
19747 19748 1 0.13986 296436.400000
19747 19756 1 0.13986 296436.400000
19748 19749 1 0.18850 35430.112000
19748 19750 1 0.13986 296436.400000
19750 19751 1 0.10860 301825.392000
19750 19752 1 0.13986 296436.400000
19752 19753 1 0.10860 301825.392000
19752 19754 1 0.13986 296436.400000
19754 19755 1 0.10860 301825.392000
19754 19756 1 0.13986 296436.400000
19756 19757 1 0.10860 301825.392000
19758 19759 1 0.10860 301825.392000
19759 19760 1 0.13986 296436.400000
19759 19768 1 0.13986 296436.400000
19760 19761 1 0.18850 35430.112000
19760 19762 1 0.13986 296436.400000
19762 19763 1 0.10860 301825.392000
19762 19764 1 0.13986 296436.400000
19764 19765 1 0.10860 301825.392000
19764 19766 1 0.13986 296436.400000
19766 19767 1 0.10860 301825.392000
19766 19768 1 0.13986 296436.400000
19768 19769 1 0.10860 301825.392000
19770 19771 1 0.10860 301825.392000
19771 19772 1 0.13986 296436.400000
19771 19780 1 0.13986 296436.400000
19772 19773 1 0.18850 35430.112000
19772 19774 1 0.13986 296436.400000
19774 19775 1 0.10860 301825.392000
19774 19776 1 0.13986 296436.400000
19776 19777 1 0.10860 301825.392000
19776 19778 1 0.13986 296436.400000
19778 19779 1 0.10860 301825.392000
19778 19780 1 0.13986 296436.400000
19780 19781 1 0.10860 301825.392000
19782 19783 1 0.10860 301825.392000
19783 19784 1 0.13986 296436.400000
19783 19792 1 0.13986 296436.400000
19784 19785 1 0.18850 35430.112000
19784 19786 1 0.13986 296436.400000
19786 19787 1 0.10860 301825.392000
19786 19788 1 0.13986 296436.400000
19788 19789 1 0.10860 301825.392000
19788 19790 1 0.13986 296436.400000
19790 19791 1 0.10860 301825.392000
19790 19792 1 0.13986 296436.400000
19792 19793 1 0.10860 301825.392000
19794 19795 1 0.10860 301825.392000
19795 19796 1 0.13986 296436.400000
19795 19804 1 0.13986 296436.400000
19796 19797 1 0.18850 35430.112000
19796 19798 1 0.13986 296436.400000
19798 19799 1 0.10860 301825.392000
19798 19800 1 0.13986 296436.400000
19800 19801 1 0.10860 301825.392000
19800 19802 1 0.13986 296436.400000
19802 19803 1 0.10860 301825.392000
19802 19804 1 0.13986 296436.400000
19804 19805 1 0.10860 301825.392000
19806 19807 1 0.10860 301825.392000
19807 19808 1 0.13986 296436.400000
19807 19816 1 0.13986 296436.400000
19808 19809 1 0.18850 35430.112000
19808 19810 1 0.13986 296436.400000
19810 19811 1 0.10860 301825.392000
19810 19812 1 0.13986 296436.400000
19812 19813 1 0.10860 301825.392000
19812 19814 1 0.13986 296436.400000
19814 19815 1 0.10860 301825.392000
19814 19816 1 0.13986 296436.400000
19816 19817 1 0.10860 301825.392000
19818 19819 1 0.10860 301825.392000
19819 19820 1 0.13986 296436.400000
19819 19828 1 0.13986 296436.400000
19820 19821 1 0.18850 35430.112000
19820 19822 1 0.13986 296436.400000
19822 19823 1 0.10860 301825.392000
19822 19824 1 0.13986 296436.400000
19824 19825 1 0.10860 301825.392000
19824 19826 1 0.13986 296436.400000
19826 19827 1 0.10860 301825.392000
19826 19828 1 0.13986 296436.400000
19828 19829 1 0.10860 301825.392000
19830 19831 1 0.10860 301825.392000
19831 19832 1 0.13986 296436.400000
19831 19840 1 0.13986 296436.400000
19832 19833 1 0.18850 35430.112000
19832 19834 1 0.13986 296436.400000
19834 19835 1 0.10860 301825.392000
19834 19836 1 0.13986 296436.400000
19836 19837 1 0.10860 301825.392000
19836 19838 1 0.13986 296436.400000
19838 19839 1 0.10860 301825.392000
19838 19840 1 0.13986 296436.400000
19840 19841 1 0.10860 301825.392000
19842 19843 1 0.10860 301825.392000
19843 19844 1 0.13986 296436.400000
19843 19852 1 0.13986 296436.400000
19844 19845 1 0.18850 35430.112000
19844 19846 1 0.13986 296436.400000
19846 19847 1 0.10860 301825.392000
19846 19848 1 0.13986 296436.400000
19848 19849 1 0.10860 301825.392000
19848 19850 1 0.13986 296436.400000
19850 19851 1 0.10860 301825.392000
19850 19852 1 0.13986 296436.400000
19852 19853 1 0.10860 301825.392000
19854 19855 1 0.10860 301825.392000
19855 19856 1 0.13986 296436.400000
19855 19864 1 0.13986 296436.400000
19856 19857 1 0.18850 35430.112000
19856 19858 1 0.13986 296436.400000
19858 19859 1 0.10860 301825.392000
19858 19860 1 0.13986 296436.400000
19860 19861 1 0.10860 301825.392000
19860 19862 1 0.13986 296436.400000
19862 19863 1 0.10860 301825.392000
19862 19864 1 0.13986 296436.400000
19864 19865 1 0.10860 301825.392000
19866 19867 1 0.10860 301825.392000
19867 19868 1 0.13986 296436.400000
19867 19876 1 0.13986 296436.400000
19868 19869 1 0.18850 35430.112000
19868 19870 1 0.13986 296436.400000
19870 19871 1 0.10860 301825.392000
19870 19872 1 0.13986 296436.400000
19872 19873 1 0.10860 301825.392000
19872 19874 1 0.13986 296436.400000
19874 19875 1 0.10860 301825.392000
19874 19876 1 0.13986 296436.400000
19876 19877 1 0.10860 301825.392000
19878 19879 1 0.10860 301825.392000
19879 19880 1 0.13986 296436.400000
19879 19888 1 0.13986 296436.400000
19880 19881 1 0.18850 35430.112000
19880 19882 1 0.13986 296436.400000
19882 19883 1 0.10860 301825.392000
19882 19884 1 0.13986 296436.400000
19884 19885 1 0.10860 301825.392000
19884 19886 1 0.13986 296436.400000
19886 19887 1 0.10860 301825.392000
19886 19888 1 0.13986 296436.400000
19888 19889 1 0.10860 301825.392000
19890 19891 1 0.10860 301825.392000
19891 19892 1 0.13986 296436.400000
19891 19900 1 0.13986 296436.400000
19892 19893 1 0.18850 35430.112000
19892 19894 1 0.13986 296436.400000
19894 19895 1 0.10860 301825.392000
19894 19896 1 0.13986 296436.400000
19896 19897 1 0.10860 301825.392000
19896 19898 1 0.13986 296436.400000
19898 19899 1 0.10860 301825.392000
19898 19900 1 0.13986 296436.400000
19900 19901 1 0.10860 301825.392000
19902 19903 1 0.10860 301825.392000
19903 19904 1 0.13986 296436.400000
19903 19912 1 0.13986 296436.400000
19904 19905 1 0.18850 35430.112000
19904 19906 1 0.13986 296436.400000
19906 19907 1 0.10860 301825.392000
19906 19908 1 0.13986 296436.400000
19908 19909 1 0.10860 301825.392000
19908 19910 1 0.13986 296436.400000
19910 19911 1 0.10860 301825.392000
19910 19912 1 0.13986 296436.400000
19912 19913 1 0.10860 301825.392000
19914 19915 1 0.10860 301825.392000
19915 19916 1 0.13986 296436.400000
19915 19924 1 0.13986 296436.400000
19916 19917 1 0.18850 35430.112000
19916 19918 1 0.13986 296436.400000
19918 19919 1 0.10860 301825.392000
19918 19920 1 0.13986 296436.400000
19920 19921 1 0.10860 301825.392000
19920 19922 1 0.13986 296436.400000
19922 19923 1 0.10860 301825.392000
19922 19924 1 0.13986 296436.400000
19924 19925 1 0.10860 301825.392000
19926 19927 1 0.10860 301825.392000
19927 19928 1 0.13986 296436.400000
19927 19936 1 0.13986 296436.400000
19928 19929 1 0.18850 35430.112000
19928 19930 1 0.13986 296436.400000
19930 19931 1 0.10860 301825.392000
19930 19932 1 0.13986 296436.400000
19932 19933 1 0.10860 301825.392000
19932 19934 1 0.13986 296436.400000
19934 19935 1 0.10860 301825.392000
19934 19936 1 0.13986 296436.400000
19936 19937 1 0.10860 301825.392000
19938 19939 1 0.10860 301825.392000
19939 19940 1 0.13986 296436.400000
19939 19948 1 0.13986 296436.400000
19940 19941 1 0.18850 35430.112000
19940 19942 1 0.13986 296436.400000
19942 19943 1 0.10860 301825.392000
19942 19944 1 0.13986 296436.400000
19944 19945 1 0.10860 301825.392000
19944 19946 1 0.13986 296436.400000
19946 19947 1 0.10860 301825.392000
19946 19948 1 0.13986 296436.400000
19948 19949 1 0.10860 301825.392000
19950 19951 1 0.10860 301825.392000
19951 19952 1 0.13986 296436.400000
19951 19960 1 0.13986 296436.400000
19952 19953 1 0.18850 35430.112000
19952 19954 1 0.13986 296436.400000
19954 19955 1 0.10860 301825.392000
19954 19956 1 0.13986 296436.400000
19956 19957 1 0.10860 301825.392000
19956 19958 1 0.13986 296436.400000
19958 19959 1 0.10860 301825.392000
19958 19960 1 0.13986 296436.400000
19960 19961 1 0.10860 301825.392000
19962 19963 1 0.10860 301825.392000
19963 19964 1 0.13986 296436.400000
19963 19972 1 0.13986 296436.400000
19964 19965 1 0.18850 35430.112000
19964 19966 1 0.13986 296436.400000
19966 19967 1 0.10860 301825.392000
19966 19968 1 0.13986 296436.400000
19968 19969 1 0.10860 301825.392000
19968 19970 1 0.13986 296436.400000
19970 19971 1 0.10860 301825.392000
19970 19972 1 0.13986 296436.400000
19972 19973 1 0.10860 301825.392000
19974 19975 1 0.10860 301825.392000
19975 19976 1 0.13986 296436.400000
19975 19984 1 0.13986 296436.400000
19976 19977 1 0.18850 35430.112000
19976 19978 1 0.13986 296436.400000
19978 19979 1 0.10860 301825.392000
19978 19980 1 0.13986 296436.400000
19980 19981 1 0.10860 301825.392000
19980 19982 1 0.13986 296436.400000
19982 19983 1 0.10860 301825.392000
19982 19984 1 0.13986 296436.400000
19984 19985 1 0.10860 301825.392000
19986 19987 1 0.10860 301825.392000
19987 19988 1 0.13986 296436.400000
19987 19996 1 0.13986 296436.400000
19988 19989 1 0.18850 35430.112000
19988 19990 1 0.13986 296436.400000
19990 19991 1 0.10860 301825.392000
19990 19992 1 0.13986 296436.400000
19992 19993 1 0.10860 301825.392000
19992 19994 1 0.13986 296436.400000
19994 19995 1 0.10860 301825.392000
19994 19996 1 0.13986 296436.400000
19996 19997 1 0.10860 301825.392000
19998 19999 1 0.10860 301825.392000
19999 20000 1 0.13986 296436.400000
19999 20008 1 0.13986 296436.400000
20000 20001 1 0.18850 35430.112000
20000 20002 1 0.13986 296436.400000
20002 20003 1 0.10860 301825.392000
20002 20004 1 0.13986 296436.400000
20004 20005 1 0.10860 301825.392000
20004 20006 1 0.13986 296436.400000
20006 20007 1 0.10860 301825.392000
20006 20008 1 0.13986 296436.400000
20008 20009 1 0.10860 301825.392000
20010 20011 1 0.10860 301825.392000
20011 20012 1 0.13986 296436.400000
20011 20020 1 0.13986 296436.400000
20012 20013 1 0.18850 35430.112000
20012 20014 1 0.13986 296436.400000
20014 20015 1 0.10860 301825.392000
20014 20016 1 0.13986 296436.400000
20016 20017 1 0.10860 301825.392000
20016 20018 1 0.13986 296436.400000
20018 20019 1 0.10860 301825.392000
20018 20020 1 0.13986 296436.400000
20020 20021 1 0.10860 301825.392000
20022 20023 1 0.10860 301825.392000
20023 20024 1 0.13986 296436.400000
20023 20032 1 0.13986 296436.400000
20024 20025 1 0.18850 35430.112000
20024 20026 1 0.13986 296436.400000
20026 20027 1 0.10860 301825.392000
20026 20028 1 0.13986 296436.400000
20028 20029 1 0.10860 301825.392000
20028 20030 1 0.13986 296436.400000
20030 20031 1 0.10860 301825.392000
20030 20032 1 0.13986 296436.400000
20032 20033 1 0.10860 301825.392000
20034 20035 1 0.10860 301825.392000
20035 20036 1 0.13986 296436.400000
20035 20044 1 0.13986 296436.400000
20036 20037 1 0.18850 35430.112000
20036 20038 1 0.13986 296436.400000
20038 20039 1 0.10860 301825.392000
20038 20040 1 0.13986 296436.400000
20040 20041 1 0.10860 301825.392000
20040 20042 1 0.13986 296436.400000
20042 20043 1 0.10860 301825.392000
20042 20044 1 0.13986 296436.400000
20044 20045 1 0.10860 301825.392000
20046 20047 1 0.10860 301825.392000
20047 20048 1 0.13986 296436.400000
20047 20056 1 0.13986 296436.400000
20048 20049 1 0.18850 35430.112000
20048 20050 1 0.13986 296436.400000
20050 20051 1 0.10860 301825.392000
20050 20052 1 0.13986 296436.400000
20052 20053 1 0.10860 301825.392000
20052 20054 1 0.13986 296436.400000
20054 20055 1 0.10860 301825.392000
20054 20056 1 0.13986 296436.400000
20056 20057 1 0.10860 301825.392000
20058 20059 1 0.10860 301825.392000
20059 20060 1 0.13986 296436.400000
20059 20068 1 0.13986 296436.400000
20060 20061 1 0.18850 35430.112000
20060 20062 1 0.13986 296436.400000
20062 20063 1 0.10860 301825.392000
20062 20064 1 0.13986 296436.400000
20064 20065 1 0.10860 301825.392000
20064 20066 1 0.13986 296436.400000
20066 20067 1 0.10860 301825.392000
20066 20068 1 0.13986 296436.400000
20068 20069 1 0.10860 301825.392000
20070 20071 1 0.10860 301825.392000
20071 20072 1 0.13986 296436.400000
20071 20080 1 0.13986 296436.400000
20072 20073 1 0.18850 35430.112000
20072 20074 1 0.13986 296436.400000
20074 20075 1 0.10860 301825.392000
20074 20076 1 0.13986 296436.400000
20076 20077 1 0.10860 301825.392000
20076 20078 1 0.13986 296436.400000
20078 20079 1 0.10860 301825.392000
20078 20080 1 0.13986 296436.400000
20080 20081 1 0.10860 301825.392000
20082 20083 1 0.10860 301825.392000
20083 20084 1 0.13986 296436.400000
20083 20092 1 0.13986 296436.400000
20084 20085 1 0.18850 35430.112000
20084 20086 1 0.13986 296436.400000
20086 20087 1 0.10860 301825.392000
20086 20088 1 0.13986 296436.400000
20088 20089 1 0.10860 301825.392000
20088 20090 1 0.13986 296436.400000
20090 20091 1 0.10860 301825.392000
20090 20092 1 0.13986 296436.400000
20092 20093 1 0.10860 301825.392000
20094 20095 1 0.10860 301825.392000
20095 20096 1 0.13986 296436.400000
20095 20104 1 0.13986 296436.400000
20096 20097 1 0.18850 35430.112000
20096 20098 1 0.13986 296436.400000
20098 20099 1 0.10860 301825.392000
20098 20100 1 0.13986 296436.400000
20100 20101 1 0.10860 301825.392000
20100 20102 1 0.13986 296436.400000
20102 20103 1 0.10860 301825.392000
20102 20104 1 0.13986 296436.400000
20104 20105 1 0.10860 301825.392000
20106 20107 1 0.10860 301825.392000
20107 20108 1 0.13986 296436.400000
20107 20116 1 0.13986 296436.400000
20108 20109 1 0.18850 35430.112000
20108 20110 1 0.13986 296436.400000
20110 20111 1 0.10860 301825.392000
20110 20112 1 0.13986 296436.400000
20112 20113 1 0.10860 301825.392000
20112 20114 1 0.13986 296436.400000
20114 20115 1 0.10860 301825.392000
20114 20116 1 0.13986 296436.400000
20116 20117 1 0.10860 301825.392000
20118 20119 1 0.10860 301825.392000
20119 20120 1 0.13986 296436.400000
20119 20128 1 0.13986 296436.400000
20120 20121 1 0.18850 35430.112000
20120 20122 1 0.13986 296436.400000
20122 20123 1 0.10860 301825.392000
20122 20124 1 0.13986 296436.400000
20124 20125 1 0.10860 301825.392000
20124 20126 1 0.13986 296436.400000
20126 20127 1 0.10860 301825.392000
20126 20128 1 0.13986 296436.400000
20128 20129 1 0.10860 301825.392000
20130 20131 1 0.10860 301825.392000
20131 20132 1 0.13986 296436.400000
20131 20140 1 0.13986 296436.400000
20132 20133 1 0.18850 35430.112000
20132 20134 1 0.13986 296436.400000
20134 20135 1 0.10860 301825.392000
20134 20136 1 0.13986 296436.400000
20136 20137 1 0.10860 301825.392000
20136 20138 1 0.13986 296436.400000
20138 20139 1 0.10860 301825.392000
20138 20140 1 0.13986 296436.400000
20140 20141 1 0.10860 301825.392000
20142 20143 1 0.10860 301825.392000
20143 20144 1 0.13986 296436.400000
20143 20152 1 0.13986 296436.400000
20144 20145 1 0.18850 35430.112000
20144 20146 1 0.13986 296436.400000
20146 20147 1 0.10860 301825.392000
20146 20148 1 0.13986 296436.400000
20148 20149 1 0.10860 301825.392000
20148 20150 1 0.13986 296436.400000
20150 20151 1 0.10860 301825.392000
20150 20152 1 0.13986 296436.400000
20152 20153 1 0.10860 301825.392000
20154 20155 1 0.10860 301825.392000
20155 20156 1 0.13986 296436.400000
20155 20164 1 0.13986 296436.400000
20156 20157 1 0.18850 35430.112000
20156 20158 1 0.13986 296436.400000
20158 20159 1 0.10860 301825.392000
20158 20160 1 0.13986 296436.400000
20160 20161 1 0.10860 301825.392000
20160 20162 1 0.13986 296436.400000
20162 20163 1 0.10860 301825.392000
20162 20164 1 0.13986 296436.400000
20164 20165 1 0.10860 301825.392000
20166 20167 1 0.10860 301825.392000
20167 20168 1 0.13986 296436.400000
20167 20176 1 0.13986 296436.400000
20168 20169 1 0.18850 35430.112000
20168 20170 1 0.13986 296436.400000
20170 20171 1 0.10860 301825.392000
20170 20172 1 0.13986 296436.400000
20172 20173 1 0.10860 301825.392000
20172 20174 1 0.13986 296436.400000
20174 20175 1 0.10860 301825.392000
20174 20176 1 0.13986 296436.400000
20176 20177 1 0.10860 301825.392000
20178 20179 1 0.10860 301825.392000
20179 20180 1 0.13986 296436.400000
20179 20188 1 0.13986 296436.400000
20180 20181 1 0.18850 35430.112000
20180 20182 1 0.13986 296436.400000
20182 20183 1 0.10860 301825.392000
20182 20184 1 0.13986 296436.400000
20184 20185 1 0.10860 301825.392000
20184 20186 1 0.13986 296436.400000
20186 20187 1 0.10860 301825.392000
20186 20188 1 0.13986 296436.400000
20188 20189 1 0.10860 301825.392000
20190 20191 1 0.10860 301825.392000
20191 20192 1 0.13986 296436.400000
20191 20200 1 0.13986 296436.400000
20192 20193 1 0.18850 35430.112000
20192 20194 1 0.13986 296436.400000
20194 20195 1 0.10860 301825.392000
20194 20196 1 0.13986 296436.400000
20196 20197 1 0.10860 301825.392000
20196 20198 1 0.13986 296436.400000
20198 20199 1 0.10860 301825.392000
20198 20200 1 0.13986 296436.400000
20200 20201 1 0.10860 301825.392000
20202 20203 1 0.10860 301825.392000
20203 20204 1 0.13986 296436.400000
20203 20212 1 0.13986 296436.400000
20204 20205 1 0.18850 35430.112000
20204 20206 1 0.13986 296436.400000
20206 20207 1 0.10860 301825.392000
20206 20208 1 0.13986 296436.400000
20208 20209 1 0.10860 301825.392000
20208 20210 1 0.13986 296436.400000
20210 20211 1 0.10860 301825.392000
20210 20212 1 0.13986 296436.400000
20212 20213 1 0.10860 301825.392000
20214 20215 1 0.10860 301825.392000
20215 20216 1 0.13986 296436.400000
20215 20224 1 0.13986 296436.400000
20216 20217 1 0.18850 35430.112000
20216 20218 1 0.13986 296436.400000
20218 20219 1 0.10860 301825.392000
20218 20220 1 0.13986 296436.400000
20220 20221 1 0.10860 301825.392000
20220 20222 1 0.13986 296436.400000
20222 20223 1 0.10860 301825.392000
20222 20224 1 0.13986 296436.400000
20224 20225 1 0.10860 301825.392000
20226 20227 1 0.10860 301825.392000
20227 20228 1 0.13986 296436.400000
20227 20236 1 0.13986 296436.400000
20228 20229 1 0.18850 35430.112000
20228 20230 1 0.13986 296436.400000
20230 20231 1 0.10860 301825.392000
20230 20232 1 0.13986 296436.400000
20232 20233 1 0.10860 301825.392000
20232 20234 1 0.13986 296436.400000
20234 20235 1 0.10860 301825.392000
20234 20236 1 0.13986 296436.400000
20236 20237 1 0.10860 301825.392000
20238 20239 1 0.10860 301825.392000
20239 20240 1 0.13986 296436.400000
20239 20248 1 0.13986 296436.400000
20240 20241 1 0.18850 35430.112000
20240 20242 1 0.13986 296436.400000
20242 20243 1 0.10860 301825.392000
20242 20244 1 0.13986 296436.400000
20244 20245 1 0.10860 301825.392000
20244 20246 1 0.13986 296436.400000
20246 20247 1 0.10860 301825.392000
20246 20248 1 0.13986 296436.400000
20248 20249 1 0.10860 301825.392000
20250 20251 1 0.10860 301825.392000
20251 20252 1 0.13986 296436.400000
20251 20260 1 0.13986 296436.400000
20252 20253 1 0.18850 35430.112000
20252 20254 1 0.13986 296436.400000
20254 20255 1 0.10860 301825.392000
20254 20256 1 0.13986 296436.400000
20256 20257 1 0.10860 301825.392000
20256 20258 1 0.13986 296436.400000
20258 20259 1 0.10860 301825.392000
20258 20260 1 0.13986 296436.400000
20260 20261 1 0.10860 301825.392000
20262 20263 1 0.10860 301825.392000
20263 20264 1 0.13986 296436.400000
20263 20272 1 0.13986 296436.400000
20264 20265 1 0.18850 35430.112000
20264 20266 1 0.13986 296436.400000
20266 20267 1 0.10860 301825.392000
20266 20268 1 0.13986 296436.400000
20268 20269 1 0.10860 301825.392000
20268 20270 1 0.13986 296436.400000
20270 20271 1 0.10860 301825.392000
20270 20272 1 0.13986 296436.400000
20272 20273 1 0.10860 301825.392000
20274 20275 1 0.10860 301825.392000
20275 20276 1 0.13986 296436.400000
20275 20284 1 0.13986 296436.400000
20276 20277 1 0.18850 35430.112000
20276 20278 1 0.13986 296436.400000
20278 20279 1 0.10860 301825.392000
20278 20280 1 0.13986 296436.400000
20280 20281 1 0.10860 301825.392000
20280 20282 1 0.13986 296436.400000
20282 20283 1 0.10860 301825.392000
20282 20284 1 0.13986 296436.400000
20284 20285 1 0.10860 301825.392000
20286 20287 1 0.10860 301825.392000
20287 20288 1 0.13986 296436.400000
20287 20296 1 0.13986 296436.400000
20288 20289 1 0.18850 35430.112000
20288 20290 1 0.13986 296436.400000
20290 20291 1 0.10860 301825.392000
20290 20292 1 0.13986 296436.400000
20292 20293 1 0.10860 301825.392000
20292 20294 1 0.13986 296436.400000
20294 20295 1 0.10860 301825.392000
20294 20296 1 0.13986 296436.400000
20296 20297 1 0.10860 301825.392000
20298 20299 1 0.10860 301825.392000
20299 20300 1 0.13986 296436.400000
20299 20308 1 0.13986 296436.400000
20300 20301 1 0.18850 35430.112000
20300 20302 1 0.13986 296436.400000
20302 20303 1 0.10860 301825.392000
20302 20304 1 0.13986 296436.400000
20304 20305 1 0.10860 301825.392000
20304 20306 1 0.13986 296436.400000
20306 20307 1 0.10860 301825.392000
20306 20308 1 0.13986 296436.400000
20308 20309 1 0.10860 301825.392000
20310 20311 1 0.10860 301825.392000
20311 20312 1 0.13986 296436.400000
20311 20320 1 0.13986 296436.400000
20312 20313 1 0.18850 35430.112000
20312 20314 1 0.13986 296436.400000
20314 20315 1 0.10860 301825.392000
20314 20316 1 0.13986 296436.400000
20316 20317 1 0.10860 301825.392000
20316 20318 1 0.13986 296436.400000
20318 20319 1 0.10860 301825.392000
20318 20320 1 0.13986 296436.400000
20320 20321 1 0.10860 301825.392000
20322 20323 1 0.10860 301825.392000
20323 20324 1 0.13986 296436.400000
20323 20332 1 0.13986 296436.400000
20324 20325 1 0.18850 35430.112000
20324 20326 1 0.13986 296436.400000
20326 20327 1 0.10860 301825.392000
20326 20328 1 0.13986 296436.400000
20328 20329 1 0.10860 301825.392000
20328 20330 1 0.13986 296436.400000
20330 20331 1 0.10860 301825.392000
20330 20332 1 0.13986 296436.400000
20332 20333 1 0.10860 301825.392000
20334 20335 1 0.10860 301825.392000
20335 20336 1 0.13986 296436.400000
20335 20344 1 0.13986 296436.400000
20336 20337 1 0.18850 35430.112000
20336 20338 1 0.13986 296436.400000
20338 20339 1 0.10860 301825.392000
20338 20340 1 0.13986 296436.400000
20340 20341 1 0.10860 301825.392000
20340 20342 1 0.13986 296436.400000
20342 20343 1 0.10860 301825.392000
20342 20344 1 0.13986 296436.400000
20344 20345 1 0.10860 301825.392000
20346 20347 1 0.10860 301825.392000
20347 20348 1 0.13986 296436.400000
20347 20356 1 0.13986 296436.400000
20348 20349 1 0.18850 35430.112000
20348 20350 1 0.13986 296436.400000
20350 20351 1 0.10860 301825.392000
20350 20352 1 0.13986 296436.400000
20352 20353 1 0.10860 301825.392000
20352 20354 1 0.13986 296436.400000
20354 20355 1 0.10860 301825.392000
20354 20356 1 0.13986 296436.400000
20356 20357 1 0.10860 301825.392000
20358 20359 1 0.10860 301825.392000
20359 20360 1 0.13986 296436.400000
20359 20368 1 0.13986 296436.400000
20360 20361 1 0.18850 35430.112000
20360 20362 1 0.13986 296436.400000
20362 20363 1 0.10860 301825.392000
20362 20364 1 0.13986 296436.400000
20364 20365 1 0.10860 301825.392000
20364 20366 1 0.13986 296436.400000
20366 20367 1 0.10860 301825.392000
20366 20368 1 0.13986 296436.400000
20368 20369 1 0.10860 301825.392000
20370 20371 1 0.10860 301825.392000
20371 20372 1 0.13986 296436.400000
20371 20380 1 0.13986 296436.400000
20372 20373 1 0.18850 35430.112000
20372 20374 1 0.13986 296436.400000
20374 20375 1 0.10860 301825.392000
20374 20376 1 0.13986 296436.400000
20376 20377 1 0.10860 301825.392000
20376 20378 1 0.13986 296436.400000
20378 20379 1 0.10860 301825.392000
20378 20380 1 0.13986 296436.400000
20380 20381 1 0.10860 301825.392000
20382 20383 1 0.10860 301825.392000
20383 20384 1 0.13986 296436.400000
20383 20392 1 0.13986 296436.400000
20384 20385 1 0.18850 35430.112000
20384 20386 1 0.13986 296436.400000
20386 20387 1 0.10860 301825.392000
20386 20388 1 0.13986 296436.400000
20388 20389 1 0.10860 301825.392000
20388 20390 1 0.13986 296436.400000
20390 20391 1 0.10860 301825.392000
20390 20392 1 0.13986 296436.400000
20392 20393 1 0.10860 301825.392000
20394 20395 1 0.10860 301825.392000
20395 20396 1 0.13986 296436.400000
20395 20404 1 0.13986 296436.400000
20396 20397 1 0.18850 35430.112000
20396 20398 1 0.13986 296436.400000
20398 20399 1 0.10860 301825.392000
20398 20400 1 0.13986 296436.400000
20400 20401 1 0.10860 301825.392000
20400 20402 1 0.13986 296436.400000
20402 20403 1 0.10860 301825.392000
20402 20404 1 0.13986 296436.400000
20404 20405 1 0.10860 301825.392000
20406 20407 1 0.10860 301825.392000
20407 20408 1 0.13986 296436.400000
20407 20416 1 0.13986 296436.400000
20408 20409 1 0.18850 35430.112000
20408 20410 1 0.13986 296436.400000
20410 20411 1 0.10860 301825.392000
20410 20412 1 0.13986 296436.400000
20412 20413 1 0.10860 301825.392000
20412 20414 1 0.13986 296436.400000
20414 20415 1 0.10860 301825.392000
20414 20416 1 0.13986 296436.400000
20416 20417 1 0.10860 301825.392000
20418 20419 1 0.10860 301825.392000
20419 20420 1 0.13986 296436.400000
20419 20428 1 0.13986 296436.400000
20420 20421 1 0.18850 35430.112000
20420 20422 1 0.13986 296436.400000
20422 20423 1 0.10860 301825.392000
20422 20424 1 0.13986 296436.400000
20424 20425 1 0.10860 301825.392000
20424 20426 1 0.13986 296436.400000
20426 20427 1 0.10860 301825.392000
20426 20428 1 0.13986 296436.400000
20428 20429 1 0.10860 301825.392000
20430 20431 1 0.10860 301825.392000
20431 20432 1 0.13986 296436.400000
20431 20440 1 0.13986 296436.400000
20432 20433 1 0.18850 35430.112000
20432 20434 1 0.13986 296436.400000
20434 20435 1 0.10860 301825.392000
20434 20436 1 0.13986 296436.400000
20436 20437 1 0.10860 301825.392000
20436 20438 1 0.13986 296436.400000
20438 20439 1 0.10860 301825.392000
20438 20440 1 0.13986 296436.400000
20440 20441 1 0.10860 301825.392000
20442 20443 1 0.10860 301825.392000
20443 20444 1 0.13986 296436.400000
20443 20452 1 0.13986 296436.400000
20444 20445 1 0.18850 35430.112000
20444 20446 1 0.13986 296436.400000
20446 20447 1 0.10860 301825.392000
20446 20448 1 0.13986 296436.400000
20448 20449 1 0.10860 301825.392000
20448 20450 1 0.13986 296436.400000
20450 20451 1 0.10860 301825.392000
20450 20452 1 0.13986 296436.400000
20452 20453 1 0.10860 301825.392000
20454 20455 1 0.10860 301825.392000
20455 20456 1 0.13986 296436.400000
20455 20464 1 0.13986 296436.400000
20456 20457 1 0.18850 35430.112000
20456 20458 1 0.13986 296436.400000
20458 20459 1 0.10860 301825.392000
20458 20460 1 0.13986 296436.400000
20460 20461 1 0.10860 301825.392000
20460 20462 1 0.13986 296436.400000
20462 20463 1 0.10860 301825.392000
20462 20464 1 0.13986 296436.400000
20464 20465 1 0.10860 301825.392000
20466 20467 1 0.10860 301825.392000
20467 20468 1 0.13986 296436.400000
20467 20476 1 0.13986 296436.400000
20468 20469 1 0.18850 35430.112000
20468 20470 1 0.13986 296436.400000
20470 20471 1 0.10860 301825.392000
20470 20472 1 0.13986 296436.400000
20472 20473 1 0.10860 301825.392000
20472 20474 1 0.13986 296436.400000
20474 20475 1 0.10860 301825.392000
20474 20476 1 0.13986 296436.400000
20476 20477 1 0.10860 301825.392000
20478 20479 1 0.10860 301825.392000
20479 20480 1 0.13986 296436.400000
20479 20488 1 0.13986 296436.400000
20480 20481 1 0.18850 35430.112000
20480 20482 1 0.13986 296436.400000
20482 20483 1 0.10860 301825.392000
20482 20484 1 0.13986 296436.400000
20484 20485 1 0.10860 301825.392000
20484 20486 1 0.13986 296436.400000
20486 20487 1 0.10860 301825.392000
20486 20488 1 0.13986 296436.400000
20488 20489 1 0.10860 301825.392000
20490 20491 1 0.10860 301825.392000
20491 20492 1 0.13986 296436.400000
20491 20500 1 0.13986 296436.400000
20492 20493 1 0.18850 35430.112000
20492 20494 1 0.13986 296436.400000
20494 20495 1 0.10860 301825.392000
20494 20496 1 0.13986 296436.400000
20496 20497 1 0.10860 301825.392000
20496 20498 1 0.13986 296436.400000
20498 20499 1 0.10860 301825.392000
20498 20500 1 0.13986 296436.400000
20500 20501 1 0.10860 301825.392000
20502 20503 1 0.10860 301825.392000
20503 20504 1 0.13986 296436.400000
20503 20512 1 0.13986 296436.400000
20504 20505 1 0.18850 35430.112000
20504 20506 1 0.13986 296436.400000
20506 20507 1 0.10860 301825.392000
20506 20508 1 0.13986 296436.400000
20508 20509 1 0.10860 301825.392000
20508 20510 1 0.13986 296436.400000
20510 20511 1 0.10860 301825.392000
20510 20512 1 0.13986 296436.400000
20512 20513 1 0.10860 301825.392000
20514 20515 1 0.10860 301825.392000
20515 20516 1 0.13986 296436.400000
20515 20524 1 0.13986 296436.400000
20516 20517 1 0.18850 35430.112000
20516 20518 1 0.13986 296436.400000
20518 20519 1 0.10860 301825.392000
20518 20520 1 0.13986 296436.400000
20520 20521 1 0.10860 301825.392000
20520 20522 1 0.13986 296436.400000
20522 20523 1 0.10860 301825.392000
20522 20524 1 0.13986 296436.400000
20524 20525 1 0.10860 301825.392000
20526 20527 1 0.10860 301825.392000
20527 20528 1 0.13986 296436.400000
20527 20536 1 0.13986 296436.400000
20528 20529 1 0.18850 35430.112000
20528 20530 1 0.13986 296436.400000
20530 20531 1 0.10860 301825.392000
20530 20532 1 0.13986 296436.400000
20532 20533 1 0.10860 301825.392000
20532 20534 1 0.13986 296436.400000
20534 20535 1 0.10860 301825.392000
20534 20536 1 0.13986 296436.400000
20536 20537 1 0.10860 301825.392000
20538 20539 1 0.10860 301825.392000
20539 20540 1 0.13986 296436.400000
20539 20548 1 0.13986 296436.400000
20540 20541 1 0.18850 35430.112000
20540 20542 1 0.13986 296436.400000
20542 20543 1 0.10860 301825.392000
20542 20544 1 0.13986 296436.400000
20544 20545 1 0.10860 301825.392000
20544 20546 1 0.13986 296436.400000
20546 20547 1 0.10860 301825.392000
20546 20548 1 0.13986 296436.400000
20548 20549 1 0.10860 301825.392000
20550 20551 1 0.10860 301825.392000
20551 20552 1 0.13986 296436.400000
20551 20560 1 0.13986 296436.400000
20552 20553 1 0.18850 35430.112000
20552 20554 1 0.13986 296436.400000
20554 20555 1 0.10860 301825.392000
20554 20556 1 0.13986 296436.400000
20556 20557 1 0.10860 301825.392000
20556 20558 1 0.13986 296436.400000
20558 20559 1 0.10860 301825.392000
20558 20560 1 0.13986 296436.400000
20560 20561 1 0.10860 301825.392000
20562 20563 1 0.10860 301825.392000
20563 20564 1 0.13986 296436.400000
20563 20572 1 0.13986 296436.400000
20564 20565 1 0.18850 35430.112000
20564 20566 1 0.13986 296436.400000
20566 20567 1 0.10860 301825.392000
20566 20568 1 0.13986 296436.400000
20568 20569 1 0.10860 301825.392000
20568 20570 1 0.13986 296436.400000
20570 20571 1 0.10860 301825.392000
20570 20572 1 0.13986 296436.400000
20572 20573 1 0.10860 301825.392000
20574 20575 1 0.10860 301825.392000
20575 20576 1 0.13986 296436.400000
20575 20584 1 0.13986 296436.400000
20576 20577 1 0.18850 35430.112000
20576 20578 1 0.13986 296436.400000
20578 20579 1 0.10860 301825.392000
20578 20580 1 0.13986 296436.400000
20580 20581 1 0.10860 301825.392000
20580 20582 1 0.13986 296436.400000
20582 20583 1 0.10860 301825.392000
20582 20584 1 0.13986 296436.400000
20584 20585 1 0.10860 301825.392000
20586 20587 1 0.10860 301825.392000
20587 20588 1 0.13986 296436.400000
20587 20596 1 0.13986 296436.400000
20588 20589 1 0.18850 35430.112000
20588 20590 1 0.13986 296436.400000
20590 20591 1 0.10860 301825.392000
20590 20592 1 0.13986 296436.400000
20592 20593 1 0.10860 301825.392000
20592 20594 1 0.13986 296436.400000
20594 20595 1 0.10860 301825.392000
20594 20596 1 0.13986 296436.400000
20596 20597 1 0.10860 301825.392000
20598 20599 1 0.10860 301825.392000
20599 20600 1 0.13986 296436.400000
20599 20608 1 0.13986 296436.400000
20600 20601 1 0.18850 35430.112000
20600 20602 1 0.13986 296436.400000
20602 20603 1 0.10860 301825.392000
20602 20604 1 0.13986 296436.400000
20604 20605 1 0.10860 301825.392000
20604 20606 1 0.13986 296436.400000
20606 20607 1 0.10860 301825.392000
20606 20608 1 0.13986 296436.400000
20608 20609 1 0.10860 301825.392000
20610 20611 1 0.10860 301825.392000
20611 20612 1 0.13986 296436.400000
20611 20620 1 0.13986 296436.400000
20612 20613 1 0.18850 35430.112000
20612 20614 1 0.13986 296436.400000
20614 20615 1 0.10860 301825.392000
20614 20616 1 0.13986 296436.400000
20616 20617 1 0.10860 301825.392000
20616 20618 1 0.13986 296436.400000
20618 20619 1 0.10860 301825.392000
20618 20620 1 0.13986 296436.400000
20620 20621 1 0.10860 301825.392000
20622 20623 1 0.10860 301825.392000
20623 20624 1 0.13986 296436.400000
20623 20632 1 0.13986 296436.400000
20624 20625 1 0.18850 35430.112000
20624 20626 1 0.13986 296436.400000
20626 20627 1 0.10860 301825.392000
20626 20628 1 0.13986 296436.400000
20628 20629 1 0.10860 301825.392000
20628 20630 1 0.13986 296436.400000
20630 20631 1 0.10860 301825.392000
20630 20632 1 0.13986 296436.400000
20632 20633 1 0.10860 301825.392000
20634 20635 1 0.10860 301825.392000
20635 20636 1 0.13986 296436.400000
20635 20644 1 0.13986 296436.400000
20636 20637 1 0.18850 35430.112000
20636 20638 1 0.13986 296436.400000
20638 20639 1 0.10860 301825.392000
20638 20640 1 0.13986 296436.400000
20640 20641 1 0.10860 301825.392000
20640 20642 1 0.13986 296436.400000
20642 20643 1 0.10860 301825.392000
20642 20644 1 0.13986 296436.400000
20644 20645 1 0.10860 301825.392000
20646 20647 1 0.10860 301825.392000
20647 20648 1 0.13986 296436.400000
20647 20656 1 0.13986 296436.400000
20648 20649 1 0.18850 35430.112000
20648 20650 1 0.13986 296436.400000
20650 20651 1 0.10860 301825.392000
20650 20652 1 0.13986 296436.400000
20652 20653 1 0.10860 301825.392000
20652 20654 1 0.13986 296436.400000
20654 20655 1 0.10860 301825.392000
20654 20656 1 0.13986 296436.400000
20656 20657 1 0.10860 301825.392000
20658 20659 1 0.10860 301825.392000
20659 20660 1 0.13986 296436.400000
20659 20668 1 0.13986 296436.400000
20660 20661 1 0.18850 35430.112000
20660 20662 1 0.13986 296436.400000
20662 20663 1 0.10860 301825.392000
20662 20664 1 0.13986 296436.400000
20664 20665 1 0.10860 301825.392000
20664 20666 1 0.13986 296436.400000
20666 20667 1 0.10860 301825.392000
20666 20668 1 0.13986 296436.400000
20668 20669 1 0.10860 301825.392000
20670 20671 1 0.10860 301825.392000
20671 20672 1 0.13986 296436.400000
20671 20680 1 0.13986 296436.400000
20672 20673 1 0.18850 35430.112000
20672 20674 1 0.13986 296436.400000
20674 20675 1 0.10860 301825.392000
20674 20676 1 0.13986 296436.400000
20676 20677 1 0.10860 301825.392000
20676 20678 1 0.13986 296436.400000
20678 20679 1 0.10860 301825.392000
20678 20680 1 0.13986 296436.400000
20680 20681 1 0.10860 301825.392000
20682 20683 1 0.10860 301825.392000
20683 20684 1 0.13986 296436.400000
20683 20692 1 0.13986 296436.400000
20684 20685 1 0.18850 35430.112000
20684 20686 1 0.13986 296436.400000
20686 20687 1 0.10860 301825.392000
20686 20688 1 0.13986 296436.400000
20688 20689 1 0.10860 301825.392000
20688 20690 1 0.13986 296436.400000
20690 20691 1 0.10860 301825.392000
20690 20692 1 0.13986 296436.400000
20692 20693 1 0.10860 301825.392000
20694 20695 1 0.10860 301825.392000
20695 20696 1 0.13986 296436.400000
20695 20704 1 0.13986 296436.400000
20696 20697 1 0.18850 35430.112000
20696 20698 1 0.13986 296436.400000
20698 20699 1 0.10860 301825.392000
20698 20700 1 0.13986 296436.400000
20700 20701 1 0.10860 301825.392000
20700 20702 1 0.13986 296436.400000
20702 20703 1 0.10860 301825.392000
20702 20704 1 0.13986 296436.400000
20704 20705 1 0.10860 301825.392000
20706 20707 1 0.10860 301825.392000
20707 20708 1 0.13986 296436.400000
20707 20716 1 0.13986 296436.400000
20708 20709 1 0.18850 35430.112000
20708 20710 1 0.13986 296436.400000
20710 20711 1 0.10860 301825.392000
20710 20712 1 0.13986 296436.400000
20712 20713 1 0.10860 301825.392000
20712 20714 1 0.13986 296436.400000
20714 20715 1 0.10860 301825.392000
20714 20716 1 0.13986 296436.400000
20716 20717 1 0.10860 301825.392000
20718 20719 1 0.10860 301825.392000
20719 20720 1 0.13986 296436.400000
20719 20728 1 0.13986 296436.400000
20720 20721 1 0.18850 35430.112000
20720 20722 1 0.13986 296436.400000
20722 20723 1 0.10860 301825.392000
20722 20724 1 0.13986 296436.400000
20724 20725 1 0.10860 301825.392000
20724 20726 1 0.13986 296436.400000
20726 20727 1 0.10860 301825.392000
20726 20728 1 0.13986 296436.400000
20728 20729 1 0.10860 301825.392000
20730 20731 1 0.10860 301825.392000
20731 20732 1 0.13986 296436.400000
20731 20740 1 0.13986 296436.400000
20732 20733 1 0.18850 35430.112000
20732 20734 1 0.13986 296436.400000
20734 20735 1 0.10860 301825.392000
20734 20736 1 0.13986 296436.400000
20736 20737 1 0.10860 301825.392000
20736 20738 1 0.13986 296436.400000
20738 20739 1 0.10860 301825.392000
20738 20740 1 0.13986 296436.400000
20740 20741 1 0.10860 301825.392000
20742 20743 1 0.10860 301825.392000
20743 20744 1 0.13986 296436.400000
20743 20752 1 0.13986 296436.400000
20744 20745 1 0.18850 35430.112000
20744 20746 1 0.13986 296436.400000
20746 20747 1 0.10860 301825.392000
20746 20748 1 0.13986 296436.400000
20748 20749 1 0.10860 301825.392000
20748 20750 1 0.13986 296436.400000
20750 20751 1 0.10860 301825.392000
20750 20752 1 0.13986 296436.400000
20752 20753 1 0.10860 301825.392000
20754 20755 1 0.10860 301825.392000
20755 20756 1 0.13986 296436.400000
20755 20764 1 0.13986 296436.400000
20756 20757 1 0.18850 35430.112000
20756 20758 1 0.13986 296436.400000
20758 20759 1 0.10860 301825.392000
20758 20760 1 0.13986 296436.400000
20760 20761 1 0.10860 301825.392000
20760 20762 1 0.13986 296436.400000
20762 20763 1 0.10860 301825.392000
20762 20764 1 0.13986 296436.400000
20764 20765 1 0.10860 301825.392000
20766 20767 1 0.10860 301825.392000
20767 20768 1 0.13986 296436.400000
20767 20776 1 0.13986 296436.400000
20768 20769 1 0.18850 35430.112000
20768 20770 1 0.13986 296436.400000
20770 20771 1 0.10860 301825.392000
20770 20772 1 0.13986 296436.400000
20772 20773 1 0.10860 301825.392000
20772 20774 1 0.13986 296436.400000
20774 20775 1 0.10860 301825.392000
20774 20776 1 0.13986 296436.400000
20776 20777 1 0.10860 301825.392000
20778 20779 1 0.10860 301825.392000
20779 20780 1 0.13986 296436.400000
20779 20788 1 0.13986 296436.400000
20780 20781 1 0.18850 35430.112000
20780 20782 1 0.13986 296436.400000
20782 20783 1 0.10860 301825.392000
20782 20784 1 0.13986 296436.400000
20784 20785 1 0.10860 301825.392000
20784 20786 1 0.13986 296436.400000
20786 20787 1 0.10860 301825.392000
20786 20788 1 0.13986 296436.400000
20788 20789 1 0.10860 301825.392000
20790 20791 1 0.10860 301825.392000
20791 20792 1 0.13986 296436.400000
20791 20800 1 0.13986 296436.400000
20792 20793 1 0.18850 35430.112000
20792 20794 1 0.13986 296436.400000
20794 20795 1 0.10860 301825.392000
20794 20796 1 0.13986 296436.400000
20796 20797 1 0.10860 301825.392000
20796 20798 1 0.13986 296436.400000
20798 20799 1 0.10860 301825.392000
20798 20800 1 0.13986 296436.400000
20800 20801 1 0.10860 301825.392000
20802 20803 1 0.10860 301825.392000
20803 20804 1 0.13986 296436.400000
20803 20812 1 0.13986 296436.400000
20804 20805 1 0.18850 35430.112000
20804 20806 1 0.13986 296436.400000
20806 20807 1 0.10860 301825.392000
20806 20808 1 0.13986 296436.400000
20808 20809 1 0.10860 301825.392000
20808 20810 1 0.13986 296436.400000
20810 20811 1 0.10860 301825.392000
20810 20812 1 0.13986 296436.400000
20812 20813 1 0.10860 301825.392000
20814 20815 1 0.10860 301825.392000
20815 20816 1 0.13986 296436.400000
20815 20824 1 0.13986 296436.400000
20816 20817 1 0.18850 35430.112000
20816 20818 1 0.13986 296436.400000
20818 20819 1 0.10860 301825.392000
20818 20820 1 0.13986 296436.400000
20820 20821 1 0.10860 301825.392000
20820 20822 1 0.13986 296436.400000
20822 20823 1 0.10860 301825.392000
20822 20824 1 0.13986 296436.400000
20824 20825 1 0.10860 301825.392000
20826 20827 1 0.10860 301825.392000
20827 20828 1 0.13986 296436.400000
20827 20836 1 0.13986 296436.400000
20828 20829 1 0.18850 35430.112000
20828 20830 1 0.13986 296436.400000
20830 20831 1 0.10860 301825.392000
20830 20832 1 0.13986 296436.400000
20832 20833 1 0.10860 301825.392000
20832 20834 1 0.13986 296436.400000
20834 20835 1 0.10860 301825.392000
20834 20836 1 0.13986 296436.400000
20836 20837 1 0.10860 301825.392000
20838 20839 1 0.10860 301825.392000
20839 20840 1 0.13986 296436.400000
20839 20848 1 0.13986 296436.400000
20840 20841 1 0.18850 35430.112000
20840 20842 1 0.13986 296436.400000
20842 20843 1 0.10860 301825.392000
20842 20844 1 0.13986 296436.400000
20844 20845 1 0.10860 301825.392000
20844 20846 1 0.13986 296436.400000
20846 20847 1 0.10860 301825.392000
20846 20848 1 0.13986 296436.400000
20848 20849 1 0.10860 301825.392000
20850 20851 1 0.10860 301825.392000
20851 20852 1 0.13986 296436.400000
20851 20860 1 0.13986 296436.400000
20852 20853 1 0.18850 35430.112000
20852 20854 1 0.13986 296436.400000
20854 20855 1 0.10860 301825.392000
20854 20856 1 0.13986 296436.400000
20856 20857 1 0.10860 301825.392000
20856 20858 1 0.13986 296436.400000
20858 20859 1 0.10860 301825.392000
20858 20860 1 0.13986 296436.400000
20860 20861 1 0.10860 301825.392000
20862 20863 1 0.10860 301825.392000
20863 20864 1 0.13986 296436.400000
20863 20872 1 0.13986 296436.400000
20864 20865 1 0.18850 35430.112000
20864 20866 1 0.13986 296436.400000
20866 20867 1 0.10860 301825.392000
20866 20868 1 0.13986 296436.400000
20868 20869 1 0.10860 301825.392000
20868 20870 1 0.13986 296436.400000
20870 20871 1 0.10860 301825.392000
20870 20872 1 0.13986 296436.400000
20872 20873 1 0.10860 301825.392000
20874 20875 1 0.10860 301825.392000
20875 20876 1 0.13986 296436.400000
20875 20884 1 0.13986 296436.400000
20876 20877 1 0.18850 35430.112000
20876 20878 1 0.13986 296436.400000
20878 20879 1 0.10860 301825.392000
20878 20880 1 0.13986 296436.400000
20880 20881 1 0.10860 301825.392000
20880 20882 1 0.13986 296436.400000
20882 20883 1 0.10860 301825.392000
20882 20884 1 0.13986 296436.400000
20884 20885 1 0.10860 301825.392000
20886 20887 1 0.10860 301825.392000
20887 20888 1 0.13986 296436.400000
20887 20896 1 0.13986 296436.400000
20888 20889 1 0.18850 35430.112000
20888 20890 1 0.13986 296436.400000
20890 20891 1 0.10860 301825.392000
20890 20892 1 0.13986 296436.400000
20892 20893 1 0.10860 301825.392000
20892 20894 1 0.13986 296436.400000
20894 20895 1 0.10860 301825.392000
20894 20896 1 0.13986 296436.400000
20896 20897 1 0.10860 301825.392000
20898 20899 1 0.10860 301825.392000
20899 20900 1 0.13986 296436.400000
20899 20908 1 0.13986 296436.400000
20900 20901 1 0.18850 35430.112000
20900 20902 1 0.13986 296436.400000
20902 20903 1 0.10860 301825.392000
20902 20904 1 0.13986 296436.400000
20904 20905 1 0.10860 301825.392000
20904 20906 1 0.13986 296436.400000
20906 20907 1 0.10860 301825.392000
20906 20908 1 0.13986 296436.400000
20908 20909 1 0.10860 301825.392000
20910 20911 1 0.10860 301825.392000
20911 20912 1 0.13986 296436.400000
20911 20920 1 0.13986 296436.400000
20912 20913 1 0.18850 35430.112000
20912 20914 1 0.13986 296436.400000
20914 20915 1 0.10860 301825.392000
20914 20916 1 0.13986 296436.400000
20916 20917 1 0.10860 301825.392000
20916 20918 1 0.13986 296436.400000
20918 20919 1 0.10860 301825.392000
20918 20920 1 0.13986 296436.400000
20920 20921 1 0.10860 301825.392000
20922 20923 1 0.10860 301825.392000
20923 20924 1 0.13986 296436.400000
20923 20932 1 0.13986 296436.400000
20924 20925 1 0.18850 35430.112000
20924 20926 1 0.13986 296436.400000
20926 20927 1 0.10860 301825.392000
20926 20928 1 0.13986 296436.400000
20928 20929 1 0.10860 301825.392000
20928 20930 1 0.13986 296436.400000
20930 20931 1 0.10860 301825.392000
20930 20932 1 0.13986 296436.400000
20932 20933 1 0.10860 301825.392000
20934 20935 1 0.10860 301825.392000
20935 20936 1 0.13986 296436.400000
20935 20944 1 0.13986 296436.400000
20936 20937 1 0.18850 35430.112000
20936 20938 1 0.13986 296436.400000
20938 20939 1 0.10860 301825.392000
20938 20940 1 0.13986 296436.400000
20940 20941 1 0.10860 301825.392000
20940 20942 1 0.13986 296436.400000
20942 20943 1 0.10860 301825.392000
20942 20944 1 0.13986 296436.400000
20944 20945 1 0.10860 301825.392000
20946 20947 1 0.10860 301825.392000
20947 20948 1 0.13986 296436.400000
20947 20956 1 0.13986 296436.400000
20948 20949 1 0.18850 35430.112000
20948 20950 1 0.13986 296436.400000
20950 20951 1 0.10860 301825.392000
20950 20952 1 0.13986 296436.400000
20952 20953 1 0.10860 301825.392000
20952 20954 1 0.13986 296436.400000
20954 20955 1 0.10860 301825.392000
20954 20956 1 0.13986 296436.400000
20956 20957 1 0.10860 301825.392000
20958 20959 1 0.10860 301825.392000
20959 20960 1 0.13986 296436.400000
20959 20968 1 0.13986 296436.400000
20960 20961 1 0.18850 35430.112000
20960 20962 1 0.13986 296436.400000
20962 20963 1 0.10860 301825.392000
20962 20964 1 0.13986 296436.400000
20964 20965 1 0.10860 301825.392000
20964 20966 1 0.13986 296436.400000
20966 20967 1 0.10860 301825.392000
20966 20968 1 0.13986 296436.400000
20968 20969 1 0.10860 301825.392000
20970 20971 1 0.10860 301825.392000
20971 20972 1 0.13986 296436.400000
20971 20980 1 0.13986 296436.400000
20972 20973 1 0.18850 35430.112000
20972 20974 1 0.13986 296436.400000
20974 20975 1 0.10860 301825.392000
20974 20976 1 0.13986 296436.400000
20976 20977 1 0.10860 301825.392000
20976 20978 1 0.13986 296436.400000
20978 20979 1 0.10860 301825.392000
20978 20980 1 0.13986 296436.400000
20980 20981 1 0.10860 301825.392000
20982 20983 1 0.10860 301825.392000
20983 20984 1 0.13986 296436.400000
20983 20992 1 0.13986 296436.400000
20984 20985 1 0.18850 35430.112000
20984 20986 1 0.13986 296436.400000
20986 20987 1 0.10860 301825.392000
20986 20988 1 0.13986 296436.400000
20988 20989 1 0.10860 301825.392000
20988 20990 1 0.13986 296436.400000
20990 20991 1 0.10860 301825.392000
20990 20992 1 0.13986 296436.400000
20992 20993 1 0.10860 301825.392000
20994 20995 1 0.10860 301825.392000
20995 20996 1 0.13986 296436.400000
20995 21004 1 0.13986 296436.400000
20996 20997 1 0.18850 35430.112000
20996 20998 1 0.13986 296436.400000
20998 20999 1 0.10860 301825.392000
20998 21000 1 0.13986 296436.400000
21000 21001 1 0.10860 301825.392000
21000 21002 1 0.13986 296436.400000
21002 21003 1 0.10860 301825.392000
21002 21004 1 0.13986 296436.400000
21004 21005 1 0.10860 301825.392000
21006 21007 1 0.10860 301825.392000
21007 21008 1 0.13986 296436.400000
21007 21016 1 0.13986 296436.400000
21008 21009 1 0.18850 35430.112000
21008 21010 1 0.13986 296436.400000
21010 21011 1 0.10860 301825.392000
21010 21012 1 0.13986 296436.400000
21012 21013 1 0.10860 301825.392000
21012 21014 1 0.13986 296436.400000
21014 21015 1 0.10860 301825.392000
21014 21016 1 0.13986 296436.400000
21016 21017 1 0.10860 301825.392000
21018 21019 1 0.10860 301825.392000
21019 21020 1 0.13986 296436.400000
21019 21028 1 0.13986 296436.400000
21020 21021 1 0.18850 35430.112000
21020 21022 1 0.13986 296436.400000
21022 21023 1 0.10860 301825.392000
21022 21024 1 0.13986 296436.400000
21024 21025 1 0.10860 301825.392000
21024 21026 1 0.13986 296436.400000
21026 21027 1 0.10860 301825.392000
21026 21028 1 0.13986 296436.400000
21028 21029 1 0.10860 301825.392000
21030 21031 1 0.10860 301825.392000
21031 21032 1 0.13986 296436.400000
21031 21040 1 0.13986 296436.400000
21032 21033 1 0.18850 35430.112000
21032 21034 1 0.13986 296436.400000
21034 21035 1 0.10860 301825.392000
21034 21036 1 0.13986 296436.400000
21036 21037 1 0.10860 301825.392000
21036 21038 1 0.13986 296436.400000
21038 21039 1 0.10860 301825.392000
21038 21040 1 0.13986 296436.400000
21040 21041 1 0.10860 301825.392000
21042 21043 1 0.10860 301825.392000
21043 21044 1 0.13986 296436.400000
21043 21052 1 0.13986 296436.400000
21044 21045 1 0.18850 35430.112000
21044 21046 1 0.13986 296436.400000
21046 21047 1 0.10860 301825.392000
21046 21048 1 0.13986 296436.400000
21048 21049 1 0.10860 301825.392000
21048 21050 1 0.13986 296436.400000
21050 21051 1 0.10860 301825.392000
21050 21052 1 0.13986 296436.400000
21052 21053 1 0.10860 301825.392000
21054 21055 1 0.10860 301825.392000
21055 21056 1 0.13986 296436.400000
21055 21064 1 0.13986 296436.400000
21056 21057 1 0.18850 35430.112000
21056 21058 1 0.13986 296436.400000
21058 21059 1 0.10860 301825.392000
21058 21060 1 0.13986 296436.400000
21060 21061 1 0.10860 301825.392000
21060 21062 1 0.13986 296436.400000
21062 21063 1 0.10860 301825.392000
21062 21064 1 0.13986 296436.400000
21064 21065 1 0.10860 301825.392000
21066 21067 1 0.10860 301825.392000
21067 21068 1 0.13986 296436.400000
21067 21076 1 0.13986 296436.400000
21068 21069 1 0.18850 35430.112000
21068 21070 1 0.13986 296436.400000
21070 21071 1 0.10860 301825.392000
21070 21072 1 0.13986 296436.400000
21072 21073 1 0.10860 301825.392000
21072 21074 1 0.13986 296436.400000
21074 21075 1 0.10860 301825.392000
21074 21076 1 0.13986 296436.400000
21076 21077 1 0.10860 301825.392000
21078 21079 1 0.10860 301825.392000
21079 21080 1 0.13986 296436.400000
21079 21088 1 0.13986 296436.400000
21080 21081 1 0.18850 35430.112000
21080 21082 1 0.13986 296436.400000
21082 21083 1 0.10860 301825.392000
21082 21084 1 0.13986 296436.400000
21084 21085 1 0.10860 301825.392000
21084 21086 1 0.13986 296436.400000
21086 21087 1 0.10860 301825.392000
21086 21088 1 0.13986 296436.400000
21088 21089 1 0.10860 301825.392000
21090 21091 1 0.10860 301825.392000
21091 21092 1 0.13986 296436.400000
21091 21100 1 0.13986 296436.400000
21092 21093 1 0.18850 35430.112000
21092 21094 1 0.13986 296436.400000
21094 21095 1 0.10860 301825.392000
21094 21096 1 0.13986 296436.400000
21096 21097 1 0.10860 301825.392000
21096 21098 1 0.13986 296436.400000
21098 21099 1 0.10860 301825.392000
21098 21100 1 0.13986 296436.400000
21100 21101 1 0.10860 301825.392000
21102 21103 1 0.10860 301825.392000
21103 21104 1 0.13986 296436.400000
21103 21112 1 0.13986 296436.400000
21104 21105 1 0.18850 35430.112000
21104 21106 1 0.13986 296436.400000
21106 21107 1 0.10860 301825.392000
21106 21108 1 0.13986 296436.400000
21108 21109 1 0.10860 301825.392000
21108 21110 1 0.13986 296436.400000
21110 21111 1 0.10860 301825.392000
21110 21112 1 0.13986 296436.400000
21112 21113 1 0.10860 301825.392000
21114 21115 1 0.10860 301825.392000
21115 21116 1 0.13986 296436.400000
21115 21124 1 0.13986 296436.400000
21116 21117 1 0.18850 35430.112000
21116 21118 1 0.13986 296436.400000
21118 21119 1 0.10860 301825.392000
21118 21120 1 0.13986 296436.400000
21120 21121 1 0.10860 301825.392000
21120 21122 1 0.13986 296436.400000
21122 21123 1 0.10860 301825.392000
21122 21124 1 0.13986 296436.400000
21124 21125 1 0.10860 301825.392000
21126 21127 1 0.10860 301825.392000
21127 21128 1 0.13986 296436.400000
21127 21136 1 0.13986 296436.400000
21128 21129 1 0.18850 35430.112000
21128 21130 1 0.13986 296436.400000
21130 21131 1 0.10860 301825.392000
21130 21132 1 0.13986 296436.400000
21132 21133 1 0.10860 301825.392000
21132 21134 1 0.13986 296436.400000
21134 21135 1 0.10860 301825.392000
21134 21136 1 0.13986 296436.400000
21136 21137 1 0.10860 301825.392000
21138 21139 1 0.10860 301825.392000
21139 21140 1 0.13986 296436.400000
21139 21148 1 0.13986 296436.400000
21140 21141 1 0.18850 35430.112000
21140 21142 1 0.13986 296436.400000
21142 21143 1 0.10860 301825.392000
21142 21144 1 0.13986 296436.400000
21144 21145 1 0.10860 301825.392000
21144 21146 1 0.13986 296436.400000
21146 21147 1 0.10860 301825.392000
21146 21148 1 0.13986 296436.400000
21148 21149 1 0.10860 301825.392000
21150 21151 1 0.10860 301825.392000
21151 21152 1 0.13986 296436.400000
21151 21160 1 0.13986 296436.400000
21152 21153 1 0.18850 35430.112000
21152 21154 1 0.13986 296436.400000
21154 21155 1 0.10860 301825.392000
21154 21156 1 0.13986 296436.400000
21156 21157 1 0.10860 301825.392000
21156 21158 1 0.13986 296436.400000
21158 21159 1 0.10860 301825.392000
21158 21160 1 0.13986 296436.400000
21160 21161 1 0.10860 301825.392000
21162 21163 1 0.10860 301825.392000
21163 21164 1 0.13986 296436.400000
21163 21172 1 0.13986 296436.400000
21164 21165 1 0.18850 35430.112000
21164 21166 1 0.13986 296436.400000
21166 21167 1 0.10860 301825.392000
21166 21168 1 0.13986 296436.400000
21168 21169 1 0.10860 301825.392000
21168 21170 1 0.13986 296436.400000
21170 21171 1 0.10860 301825.392000
21170 21172 1 0.13986 296436.400000
21172 21173 1 0.10860 301825.392000
21174 21175 1 0.10860 301825.392000
21175 21176 1 0.13986 296436.400000
21175 21184 1 0.13986 296436.400000
21176 21177 1 0.18850 35430.112000
21176 21178 1 0.13986 296436.400000
21178 21179 1 0.10860 301825.392000
21178 21180 1 0.13986 296436.400000
21180 21181 1 0.10860 301825.392000
21180 21182 1 0.13986 296436.400000
21182 21183 1 0.10860 301825.392000
21182 21184 1 0.13986 296436.400000
21184 21185 1 0.10860 301825.392000
21186 21187 1 0.10860 301825.392000
21187 21188 1 0.13986 296436.400000
21187 21196 1 0.13986 296436.400000
21188 21189 1 0.18850 35430.112000
21188 21190 1 0.13986 296436.400000
21190 21191 1 0.10860 301825.392000
21190 21192 1 0.13986 296436.400000
21192 21193 1 0.10860 301825.392000
21192 21194 1 0.13986 296436.400000
21194 21195 1 0.10860 301825.392000
21194 21196 1 0.13986 296436.400000
21196 21197 1 0.10860 301825.392000
21198 21199 1 0.10860 301825.392000
21199 21200 1 0.13986 296436.400000
21199 21208 1 0.13986 296436.400000
21200 21201 1 0.18850 35430.112000
21200 21202 1 0.13986 296436.400000
21202 21203 1 0.10860 301825.392000
21202 21204 1 0.13986 296436.400000
21204 21205 1 0.10860 301825.392000
21204 21206 1 0.13986 296436.400000
21206 21207 1 0.10860 301825.392000
21206 21208 1 0.13986 296436.400000
21208 21209 1 0.10860 301825.392000
21210 21211 1 0.10860 301825.392000
21211 21212 1 0.13986 296436.400000
21211 21220 1 0.13986 296436.400000
21212 21213 1 0.18850 35430.112000
21212 21214 1 0.13986 296436.400000
21214 21215 1 0.10860 301825.392000
21214 21216 1 0.13986 296436.400000
21216 21217 1 0.10860 301825.392000
21216 21218 1 0.13986 296436.400000
21218 21219 1 0.10860 301825.392000
21218 21220 1 0.13986 296436.400000
21220 21221 1 0.10860 301825.392000
21222 21223 1 0.10860 301825.392000
21223 21224 1 0.13986 296436.400000
21223 21232 1 0.13986 296436.400000
21224 21225 1 0.18850 35430.112000
21224 21226 1 0.13986 296436.400000
21226 21227 1 0.10860 301825.392000
21226 21228 1 0.13986 296436.400000
21228 21229 1 0.10860 301825.392000
21228 21230 1 0.13986 296436.400000
21230 21231 1 0.10860 301825.392000
21230 21232 1 0.13986 296436.400000
21232 21233 1 0.10860 301825.392000
21234 21235 1 0.10860 301825.392000
21235 21236 1 0.13986 296436.400000
21235 21244 1 0.13986 296436.400000
21236 21237 1 0.18850 35430.112000
21236 21238 1 0.13986 296436.400000
21238 21239 1 0.10860 301825.392000
21238 21240 1 0.13986 296436.400000
21240 21241 1 0.10860 301825.392000
21240 21242 1 0.13986 296436.400000
21242 21243 1 0.10860 301825.392000
21242 21244 1 0.13986 296436.400000
21244 21245 1 0.10860 301825.392000
21246 21247 1 0.10860 301825.392000
21247 21248 1 0.13986 296436.400000
21247 21256 1 0.13986 296436.400000
21248 21249 1 0.18850 35430.112000
21248 21250 1 0.13986 296436.400000
21250 21251 1 0.10860 301825.392000
21250 21252 1 0.13986 296436.400000
21252 21253 1 0.10860 301825.392000
21252 21254 1 0.13986 296436.400000
21254 21255 1 0.10860 301825.392000
21254 21256 1 0.13986 296436.400000
21256 21257 1 0.10860 301825.392000
21258 21259 1 0.10860 301825.392000
21259 21260 1 0.13986 296436.400000
21259 21268 1 0.13986 296436.400000
21260 21261 1 0.18850 35430.112000
21260 21262 1 0.13986 296436.400000
21262 21263 1 0.10860 301825.392000
21262 21264 1 0.13986 296436.400000
21264 21265 1 0.10860 301825.392000
21264 21266 1 0.13986 296436.400000
21266 21267 1 0.10860 301825.392000
21266 21268 1 0.13986 296436.400000
21268 21269 1 0.10860 301825.392000
21270 21271 1 0.10860 301825.392000
21271 21272 1 0.13986 296436.400000
21271 21280 1 0.13986 296436.400000
21272 21273 1 0.18850 35430.112000
21272 21274 1 0.13986 296436.400000
21274 21275 1 0.10860 301825.392000
21274 21276 1 0.13986 296436.400000
21276 21277 1 0.10860 301825.392000
21276 21278 1 0.13986 296436.400000
21278 21279 1 0.10860 301825.392000
21278 21280 1 0.13986 296436.400000
21280 21281 1 0.10860 301825.392000
21282 21283 1 0.10860 301825.392000
21283 21284 1 0.13986 296436.400000
21283 21292 1 0.13986 296436.400000
21284 21285 1 0.18850 35430.112000
21284 21286 1 0.13986 296436.400000
21286 21287 1 0.10860 301825.392000
21286 21288 1 0.13986 296436.400000
21288 21289 1 0.10860 301825.392000
21288 21290 1 0.13986 296436.400000
21290 21291 1 0.10860 301825.392000
21290 21292 1 0.13986 296436.400000
21292 21293 1 0.10860 301825.392000
21294 21295 1 0.10860 301825.392000
21295 21296 1 0.13986 296436.400000
21295 21304 1 0.13986 296436.400000
21296 21297 1 0.18850 35430.112000
21296 21298 1 0.13986 296436.400000
21298 21299 1 0.10860 301825.392000
21298 21300 1 0.13986 296436.400000
21300 21301 1 0.10860 301825.392000
21300 21302 1 0.13986 296436.400000
21302 21303 1 0.10860 301825.392000
21302 21304 1 0.13986 296436.400000
21304 21305 1 0.10860 301825.392000
21306 21307 1 0.10860 301825.392000
21307 21308 1 0.13986 296436.400000
21307 21316 1 0.13986 296436.400000
21308 21309 1 0.18850 35430.112000
21308 21310 1 0.13986 296436.400000
21310 21311 1 0.10860 301825.392000
21310 21312 1 0.13986 296436.400000
21312 21313 1 0.10860 301825.392000
21312 21314 1 0.13986 296436.400000
21314 21315 1 0.10860 301825.392000
21314 21316 1 0.13986 296436.400000
21316 21317 1 0.10860 301825.392000
21318 21319 1 0.10860 301825.392000
21319 21320 1 0.13986 296436.400000
21319 21328 1 0.13986 296436.400000
21320 21321 1 0.18850 35430.112000
21320 21322 1 0.13986 296436.400000
21322 21323 1 0.10860 301825.392000
21322 21324 1 0.13986 296436.400000
21324 21325 1 0.10860 301825.392000
21324 21326 1 0.13986 296436.400000
21326 21327 1 0.10860 301825.392000
21326 21328 1 0.13986 296436.400000
21328 21329 1 0.10860 301825.392000
21330 21331 1 0.10860 301825.392000
21331 21332 1 0.13986 296436.400000
21331 21340 1 0.13986 296436.400000
21332 21333 1 0.18850 35430.112000
21332 21334 1 0.13986 296436.400000
21334 21335 1 0.10860 301825.392000
21334 21336 1 0.13986 296436.400000
21336 21337 1 0.10860 301825.392000
21336 21338 1 0.13986 296436.400000
21338 21339 1 0.10860 301825.392000
21338 21340 1 0.13986 296436.400000
21340 21341 1 0.10860 301825.392000
21342 21343 1 0.10860 301825.392000
21343 21344 1 0.13986 296436.400000
21343 21352 1 0.13986 296436.400000
21344 21345 1 0.18850 35430.112000
21344 21346 1 0.13986 296436.400000
21346 21347 1 0.10860 301825.392000
21346 21348 1 0.13986 296436.400000
21348 21349 1 0.10860 301825.392000
21348 21350 1 0.13986 296436.400000
21350 21351 1 0.10860 301825.392000
21350 21352 1 0.13986 296436.400000
21352 21353 1 0.10860 301825.392000
21354 21355 1 0.10860 301825.392000
21355 21356 1 0.13986 296436.400000
21355 21364 1 0.13986 296436.400000
21356 21357 1 0.18850 35430.112000
21356 21358 1 0.13986 296436.400000
21358 21359 1 0.10860 301825.392000
21358 21360 1 0.13986 296436.400000
21360 21361 1 0.10860 301825.392000
21360 21362 1 0.13986 296436.400000
21362 21363 1 0.10860 301825.392000
21362 21364 1 0.13986 296436.400000
21364 21365 1 0.10860 301825.392000
21366 21367 1 0.10860 301825.392000
21367 21368 1 0.13986 296436.400000
21367 21376 1 0.13986 296436.400000
21368 21369 1 0.18850 35430.112000
21368 21370 1 0.13986 296436.400000
21370 21371 1 0.10860 301825.392000
21370 21372 1 0.13986 296436.400000
21372 21373 1 0.10860 301825.392000
21372 21374 1 0.13986 296436.400000
21374 21375 1 0.10860 301825.392000
21374 21376 1 0.13986 296436.400000
21376 21377 1 0.10860 301825.392000
21378 21379 1 0.10860 301825.392000
21379 21380 1 0.13986 296436.400000
21379 21388 1 0.13986 296436.400000
21380 21381 1 0.18850 35430.112000
21380 21382 1 0.13986 296436.400000
21382 21383 1 0.10860 301825.392000
21382 21384 1 0.13986 296436.400000
21384 21385 1 0.10860 301825.392000
21384 21386 1 0.13986 296436.400000
21386 21387 1 0.10860 301825.392000
21386 21388 1 0.13986 296436.400000
21388 21389 1 0.10860 301825.392000
21390 21391 1 0.10860 301825.392000
21391 21392 1 0.13986 296436.400000
21391 21400 1 0.13986 296436.400000
21392 21393 1 0.18850 35430.112000
21392 21394 1 0.13986 296436.400000
21394 21395 1 0.10860 301825.392000
21394 21396 1 0.13986 296436.400000
21396 21397 1 0.10860 301825.392000
21396 21398 1 0.13986 296436.400000
21398 21399 1 0.10860 301825.392000
21398 21400 1 0.13986 296436.400000
21400 21401 1 0.10860 301825.392000
21402 21403 1 0.10860 301825.392000
21403 21404 1 0.13986 296436.400000
21403 21412 1 0.13986 296436.400000
21404 21405 1 0.18850 35430.112000
21404 21406 1 0.13986 296436.400000
21406 21407 1 0.10860 301825.392000
21406 21408 1 0.13986 296436.400000
21408 21409 1 0.10860 301825.392000
21408 21410 1 0.13986 296436.400000
21410 21411 1 0.10860 301825.392000
21410 21412 1 0.13986 296436.400000
21412 21413 1 0.10860 301825.392000
21414 21415 1 0.10860 301825.392000
21415 21416 1 0.13986 296436.400000
21415 21424 1 0.13986 296436.400000
21416 21417 1 0.18850 35430.112000
21416 21418 1 0.13986 296436.400000
21418 21419 1 0.10860 301825.392000
21418 21420 1 0.13986 296436.400000
21420 21421 1 0.10860 301825.392000
21420 21422 1 0.13986 296436.400000
21422 21423 1 0.10860 301825.392000
21422 21424 1 0.13986 296436.400000
21424 21425 1 0.10860 301825.392000
21426 21427 1 0.10860 301825.392000
21427 21428 1 0.13986 296436.400000
21427 21436 1 0.13986 296436.400000
21428 21429 1 0.18850 35430.112000
21428 21430 1 0.13986 296436.400000
21430 21431 1 0.10860 301825.392000
21430 21432 1 0.13986 296436.400000
21432 21433 1 0.10860 301825.392000
21432 21434 1 0.13986 296436.400000
21434 21435 1 0.10860 301825.392000
21434 21436 1 0.13986 296436.400000
21436 21437 1 0.10860 301825.392000
21438 21439 1 0.10860 301825.392000
21439 21440 1 0.13986 296436.400000
21439 21448 1 0.13986 296436.400000
21440 21441 1 0.18850 35430.112000
21440 21442 1 0.13986 296436.400000
21442 21443 1 0.10860 301825.392000
21442 21444 1 0.13986 296436.400000
21444 21445 1 0.10860 301825.392000
21444 21446 1 0.13986 296436.400000
21446 21447 1 0.10860 301825.392000
21446 21448 1 0.13986 296436.400000
21448 21449 1 0.10860 301825.392000
21450 21451 1 0.10860 301825.392000
21451 21452 1 0.13986 296436.400000
21451 21460 1 0.13986 296436.400000
21452 21453 1 0.18850 35430.112000
21452 21454 1 0.13986 296436.400000
21454 21455 1 0.10860 301825.392000
21454 21456 1 0.13986 296436.400000
21456 21457 1 0.10860 301825.392000
21456 21458 1 0.13986 296436.400000
21458 21459 1 0.10860 301825.392000
21458 21460 1 0.13986 296436.400000
21460 21461 1 0.10860 301825.392000
21462 21463 1 0.10860 301825.392000
21463 21464 1 0.13986 296436.400000
21463 21472 1 0.13986 296436.400000
21464 21465 1 0.18850 35430.112000
21464 21466 1 0.13986 296436.400000
21466 21467 1 0.10860 301825.392000
21466 21468 1 0.13986 296436.400000
21468 21469 1 0.10860 301825.392000
21468 21470 1 0.13986 296436.400000
21470 21471 1 0.10860 301825.392000
21470 21472 1 0.13986 296436.400000
21472 21473 1 0.10860 301825.392000
21474 21475 1 0.10860 301825.392000
21475 21476 1 0.13986 296436.400000
21475 21484 1 0.13986 296436.400000
21476 21477 1 0.18850 35430.112000
21476 21478 1 0.13986 296436.400000
21478 21479 1 0.10860 301825.392000
21478 21480 1 0.13986 296436.400000
21480 21481 1 0.10860 301825.392000
21480 21482 1 0.13986 296436.400000
21482 21483 1 0.10860 301825.392000
21482 21484 1 0.13986 296436.400000
21484 21485 1 0.10860 301825.392000
21486 21487 1 0.10860 301825.392000
21487 21488 1 0.13986 296436.400000
21487 21496 1 0.13986 296436.400000
21488 21489 1 0.18850 35430.112000
21488 21490 1 0.13986 296436.400000
21490 21491 1 0.10860 301825.392000
21490 21492 1 0.13986 296436.400000
21492 21493 1 0.10860 301825.392000
21492 21494 1 0.13986 296436.400000
21494 21495 1 0.10860 301825.392000
21494 21496 1 0.13986 296436.400000
21496 21497 1 0.10860 301825.392000
21498 21499 1 0.10860 301825.392000
21499 21500 1 0.13986 296436.400000
21499 21508 1 0.13986 296436.400000
21500 21501 1 0.18850 35430.112000
21500 21502 1 0.13986 296436.400000
21502 21503 1 0.10860 301825.392000
21502 21504 1 0.13986 296436.400000
21504 21505 1 0.10860 301825.392000
21504 21506 1 0.13986 296436.400000
21506 21507 1 0.10860 301825.392000
21506 21508 1 0.13986 296436.400000
21508 21509 1 0.10860 301825.392000
21510 21511 1 0.10860 301825.392000
21511 21512 1 0.13986 296436.400000
21511 21520 1 0.13986 296436.400000
21512 21513 1 0.18850 35430.112000
21512 21514 1 0.13986 296436.400000
21514 21515 1 0.10860 301825.392000
21514 21516 1 0.13986 296436.400000
21516 21517 1 0.10860 301825.392000
21516 21518 1 0.13986 296436.400000
21518 21519 1 0.10860 301825.392000
21518 21520 1 0.13986 296436.400000
21520 21521 1 0.10860 301825.392000
21522 21523 1 0.10860 301825.392000
21523 21524 1 0.13986 296436.400000
21523 21532 1 0.13986 296436.400000
21524 21525 1 0.18850 35430.112000
21524 21526 1 0.13986 296436.400000
21526 21527 1 0.10860 301825.392000
21526 21528 1 0.13986 296436.400000
21528 21529 1 0.10860 301825.392000
21528 21530 1 0.13986 296436.400000
21530 21531 1 0.10860 301825.392000
21530 21532 1 0.13986 296436.400000
21532 21533 1 0.10860 301825.392000
21534 21535 1 0.10860 301825.392000
21535 21536 1 0.13986 296436.400000
21535 21544 1 0.13986 296436.400000
21536 21537 1 0.18850 35430.112000
21536 21538 1 0.13986 296436.400000
21538 21539 1 0.10860 301825.392000
21538 21540 1 0.13986 296436.400000
21540 21541 1 0.10860 301825.392000
21540 21542 1 0.13986 296436.400000
21542 21543 1 0.10860 301825.392000
21542 21544 1 0.13986 296436.400000
21544 21545 1 0.10860 301825.392000
21546 21547 1 0.10860 301825.392000
21547 21548 1 0.13986 296436.400000
21547 21556 1 0.13986 296436.400000
21548 21549 1 0.18850 35430.112000
21548 21550 1 0.13986 296436.400000
21550 21551 1 0.10860 301825.392000
21550 21552 1 0.13986 296436.400000
21552 21553 1 0.10860 301825.392000
21552 21554 1 0.13986 296436.400000
21554 21555 1 0.10860 301825.392000
21554 21556 1 0.13986 296436.400000
21556 21557 1 0.10860 301825.392000
21558 21559 1 0.10860 301825.392000
21559 21560 1 0.13986 296436.400000
21559 21568 1 0.13986 296436.400000
21560 21561 1 0.18850 35430.112000
21560 21562 1 0.13986 296436.400000
21562 21563 1 0.10860 301825.392000
21562 21564 1 0.13986 296436.400000
21564 21565 1 0.10860 301825.392000
21564 21566 1 0.13986 296436.400000
21566 21567 1 0.10860 301825.392000
21566 21568 1 0.13986 296436.400000
21568 21569 1 0.10860 301825.392000
21570 21571 1 0.10860 301825.392000
21571 21572 1 0.13986 296436.400000
21571 21580 1 0.13986 296436.400000
21572 21573 1 0.18850 35430.112000
21572 21574 1 0.13986 296436.400000
21574 21575 1 0.10860 301825.392000
21574 21576 1 0.13986 296436.400000
21576 21577 1 0.10860 301825.392000
21576 21578 1 0.13986 296436.400000
21578 21579 1 0.10860 301825.392000
21578 21580 1 0.13986 296436.400000
21580 21581 1 0.10860 301825.392000
21582 21583 1 0.10860 301825.392000
21583 21584 1 0.13986 296436.400000
21583 21592 1 0.13986 296436.400000
21584 21585 1 0.18850 35430.112000
21584 21586 1 0.13986 296436.400000
21586 21587 1 0.10860 301825.392000
21586 21588 1 0.13986 296436.400000
21588 21589 1 0.10860 301825.392000
21588 21590 1 0.13986 296436.400000
21590 21591 1 0.10860 301825.392000
21590 21592 1 0.13986 296436.400000
21592 21593 1 0.10860 301825.392000
21594 21595 1 0.10860 301825.392000
21595 21596 1 0.13986 296436.400000
21595 21604 1 0.13986 296436.400000
21596 21597 1 0.18850 35430.112000
21596 21598 1 0.13986 296436.400000
21598 21599 1 0.10860 301825.392000
21598 21600 1 0.13986 296436.400000
21600 21601 1 0.10860 301825.392000
21600 21602 1 0.13986 296436.400000
21602 21603 1 0.10860 301825.392000
21602 21604 1 0.13986 296436.400000
21604 21605 1 0.10860 301825.392000
21606 21607 1 0.10860 301825.392000
21607 21608 1 0.13986 296436.400000
21607 21616 1 0.13986 296436.400000
21608 21609 1 0.18850 35430.112000
21608 21610 1 0.13986 296436.400000
21610 21611 1 0.10860 301825.392000
21610 21612 1 0.13986 296436.400000
21612 21613 1 0.10860 301825.392000
21612 21614 1 0.13986 296436.400000
21614 21615 1 0.10860 301825.392000
21614 21616 1 0.13986 296436.400000
21616 21617 1 0.10860 301825.392000
21618 21619 1 0.10860 301825.392000
21619 21620 1 0.13986 296436.400000
21619 21628 1 0.13986 296436.400000
21620 21621 1 0.18850 35430.112000
21620 21622 1 0.13986 296436.400000
21622 21623 1 0.10860 301825.392000
21622 21624 1 0.13986 296436.400000
21624 21625 1 0.10860 301825.392000
21624 21626 1 0.13986 296436.400000
21626 21627 1 0.10860 301825.392000
21626 21628 1 0.13986 296436.400000
21628 21629 1 0.10860 301825.392000
21630 21631 1 0.10860 301825.392000
21631 21632 1 0.13986 296436.400000
21631 21640 1 0.13986 296436.400000
21632 21633 1 0.18850 35430.112000
21632 21634 1 0.13986 296436.400000
21634 21635 1 0.10860 301825.392000
21634 21636 1 0.13986 296436.400000
21636 21637 1 0.10860 301825.392000
21636 21638 1 0.13986 296436.400000
21638 21639 1 0.10860 301825.392000
21638 21640 1 0.13986 296436.400000
21640 21641 1 0.10860 301825.392000
21642 21643 1 0.10860 301825.392000
21643 21644 1 0.13986 296436.400000
21643 21652 1 0.13986 296436.400000
21644 21645 1 0.18850 35430.112000
21644 21646 1 0.13986 296436.400000
21646 21647 1 0.10860 301825.392000
21646 21648 1 0.13986 296436.400000
21648 21649 1 0.10860 301825.392000
21648 21650 1 0.13986 296436.400000
21650 21651 1 0.10860 301825.392000
21650 21652 1 0.13986 296436.400000
21652 21653 1 0.10860 301825.392000
21654 21655 1 0.10860 301825.392000
21655 21656 1 0.13986 296436.400000
21655 21664 1 0.13986 296436.400000
21656 21657 1 0.18850 35430.112000
21656 21658 1 0.13986 296436.400000
21658 21659 1 0.10860 301825.392000
21658 21660 1 0.13986 296436.400000
21660 21661 1 0.10860 301825.392000
21660 21662 1 0.13986 296436.400000
21662 21663 1 0.10860 301825.392000
21662 21664 1 0.13986 296436.400000
21664 21665 1 0.10860 301825.392000
21666 21667 1 0.10860 301825.392000
21667 21668 1 0.13986 296436.400000
21667 21676 1 0.13986 296436.400000
21668 21669 1 0.18850 35430.112000
21668 21670 1 0.13986 296436.400000
21670 21671 1 0.10860 301825.392000
21670 21672 1 0.13986 296436.400000
21672 21673 1 0.10860 301825.392000
21672 21674 1 0.13986 296436.400000
21674 21675 1 0.10860 301825.392000
21674 21676 1 0.13986 296436.400000
21676 21677 1 0.10860 301825.392000
21678 21679 1 0.10860 301825.392000
21679 21680 1 0.13986 296436.400000
21679 21688 1 0.13986 296436.400000
21680 21681 1 0.18850 35430.112000
21680 21682 1 0.13986 296436.400000
21682 21683 1 0.10860 301825.392000
21682 21684 1 0.13986 296436.400000
21684 21685 1 0.10860 301825.392000
21684 21686 1 0.13986 296436.400000
21686 21687 1 0.10860 301825.392000
21686 21688 1 0.13986 296436.400000
21688 21689 1 0.10860 301825.392000
21690 21691 1 0.10860 301825.392000
21691 21692 1 0.13986 296436.400000
21691 21700 1 0.13986 296436.400000
21692 21693 1 0.18850 35430.112000
21692 21694 1 0.13986 296436.400000
21694 21695 1 0.10860 301825.392000
21694 21696 1 0.13986 296436.400000
21696 21697 1 0.10860 301825.392000
21696 21698 1 0.13986 296436.400000
21698 21699 1 0.10860 301825.392000
21698 21700 1 0.13986 296436.400000
21700 21701 1 0.10860 301825.392000
21702 21703 1 0.10860 301825.392000
21703 21704 1 0.13986 296436.400000
21703 21712 1 0.13986 296436.400000
21704 21705 1 0.18850 35430.112000
21704 21706 1 0.13986 296436.400000
21706 21707 1 0.10860 301825.392000
21706 21708 1 0.13986 296436.400000
21708 21709 1 0.10860 301825.392000
21708 21710 1 0.13986 296436.400000
21710 21711 1 0.10860 301825.392000
21710 21712 1 0.13986 296436.400000
21712 21713 1 0.10860 301825.392000
21714 21715 1 0.10860 301825.392000
21715 21716 1 0.13986 296436.400000
21715 21724 1 0.13986 296436.400000
21716 21717 1 0.18850 35430.112000
21716 21718 1 0.13986 296436.400000
21718 21719 1 0.10860 301825.392000
21718 21720 1 0.13986 296436.400000
21720 21721 1 0.10860 301825.392000
21720 21722 1 0.13986 296436.400000
21722 21723 1 0.10860 301825.392000
21722 21724 1 0.13986 296436.400000
21724 21725 1 0.10860 301825.392000
21726 21727 1 0.10860 301825.392000
21727 21728 1 0.13986 296436.400000
21727 21736 1 0.13986 296436.400000
21728 21729 1 0.18850 35430.112000
21728 21730 1 0.13986 296436.400000
21730 21731 1 0.10860 301825.392000
21730 21732 1 0.13986 296436.400000
21732 21733 1 0.10860 301825.392000
21732 21734 1 0.13986 296436.400000
21734 21735 1 0.10860 301825.392000
21734 21736 1 0.13986 296436.400000
21736 21737 1 0.10860 301825.392000
21738 21739 1 0.10860 301825.392000
21739 21740 1 0.13986 296436.400000
21739 21748 1 0.13986 296436.400000
21740 21741 1 0.18850 35430.112000
21740 21742 1 0.13986 296436.400000
21742 21743 1 0.10860 301825.392000
21742 21744 1 0.13986 296436.400000
21744 21745 1 0.10860 301825.392000
21744 21746 1 0.13986 296436.400000
21746 21747 1 0.10860 301825.392000
21746 21748 1 0.13986 296436.400000
21748 21749 1 0.10860 301825.392000
21750 21751 1 0.10860 301825.392000
21751 21752 1 0.13986 296436.400000
21751 21760 1 0.13986 296436.400000
21752 21753 1 0.18850 35430.112000
21752 21754 1 0.13986 296436.400000
21754 21755 1 0.10860 301825.392000
21754 21756 1 0.13986 296436.400000
21756 21757 1 0.10860 301825.392000
21756 21758 1 0.13986 296436.400000
21758 21759 1 0.10860 301825.392000
21758 21760 1 0.13986 296436.400000
21760 21761 1 0.10860 301825.392000
21762 21763 1 0.10860 301825.392000
21763 21764 1 0.13986 296436.400000
21763 21772 1 0.13986 296436.400000
21764 21765 1 0.18850 35430.112000
21764 21766 1 0.13986 296436.400000
21766 21767 1 0.10860 301825.392000
21766 21768 1 0.13986 296436.400000
21768 21769 1 0.10860 301825.392000
21768 21770 1 0.13986 296436.400000
21770 21771 1 0.10860 301825.392000
21770 21772 1 0.13986 296436.400000
21772 21773 1 0.10860 301825.392000
21774 21775 1 0.10860 301825.392000
21775 21776 1 0.13986 296436.400000
21775 21784 1 0.13986 296436.400000
21776 21777 1 0.18850 35430.112000
21776 21778 1 0.13986 296436.400000
21778 21779 1 0.10860 301825.392000
21778 21780 1 0.13986 296436.400000
21780 21781 1 0.10860 301825.392000
21780 21782 1 0.13986 296436.400000
21782 21783 1 0.10860 301825.392000
21782 21784 1 0.13986 296436.400000
21784 21785 1 0.10860 301825.392000
21786 21787 1 0.10860 301825.392000
21787 21788 1 0.13986 296436.400000
21787 21796 1 0.13986 296436.400000
21788 21789 1 0.18850 35430.112000
21788 21790 1 0.13986 296436.400000
21790 21791 1 0.10860 301825.392000
21790 21792 1 0.13986 296436.400000
21792 21793 1 0.10860 301825.392000
21792 21794 1 0.13986 296436.400000
21794 21795 1 0.10860 301825.392000
21794 21796 1 0.13986 296436.400000
21796 21797 1 0.10860 301825.392000
21798 21799 1 0.10860 301825.392000
21799 21800 1 0.13986 296436.400000
21799 21808 1 0.13986 296436.400000
21800 21801 1 0.18850 35430.112000
21800 21802 1 0.13986 296436.400000
21802 21803 1 0.10860 301825.392000
21802 21804 1 0.13986 296436.400000
21804 21805 1 0.10860 301825.392000
21804 21806 1 0.13986 296436.400000
21806 21807 1 0.10860 301825.392000
21806 21808 1 0.13986 296436.400000
21808 21809 1 0.10860 301825.392000
21810 21811 1 0.10860 301825.392000
21811 21812 1 0.13986 296436.400000
21811 21820 1 0.13986 296436.400000
21812 21813 1 0.18850 35430.112000
21812 21814 1 0.13986 296436.400000
21814 21815 1 0.10860 301825.392000
21814 21816 1 0.13986 296436.400000
21816 21817 1 0.10860 301825.392000
21816 21818 1 0.13986 296436.400000
21818 21819 1 0.10860 301825.392000
21818 21820 1 0.13986 296436.400000
21820 21821 1 0.10860 301825.392000
21822 21823 1 0.10860 301825.392000
21823 21824 1 0.13986 296436.400000
21823 21832 1 0.13986 296436.400000
21824 21825 1 0.18850 35430.112000
21824 21826 1 0.13986 296436.400000
21826 21827 1 0.10860 301825.392000
21826 21828 1 0.13986 296436.400000
21828 21829 1 0.10860 301825.392000
21828 21830 1 0.13986 296436.400000
21830 21831 1 0.10860 301825.392000
21830 21832 1 0.13986 296436.400000
21832 21833 1 0.10860 301825.392000
21834 21835 1 0.10860 301825.392000
21835 21836 1 0.13986 296436.400000
21835 21844 1 0.13986 296436.400000
21836 21837 1 0.18850 35430.112000
21836 21838 1 0.13986 296436.400000
21838 21839 1 0.10860 301825.392000
21838 21840 1 0.13986 296436.400000
21840 21841 1 0.10860 301825.392000
21840 21842 1 0.13986 296436.400000
21842 21843 1 0.10860 301825.392000
21842 21844 1 0.13986 296436.400000
21844 21845 1 0.10860 301825.392000
21846 21847 1 0.10860 301825.392000
21847 21848 1 0.13986 296436.400000
21847 21856 1 0.13986 296436.400000
21848 21849 1 0.18850 35430.112000
21848 21850 1 0.13986 296436.400000
21850 21851 1 0.10860 301825.392000
21850 21852 1 0.13986 296436.400000
21852 21853 1 0.10860 301825.392000
21852 21854 1 0.13986 296436.400000
21854 21855 1 0.10860 301825.392000
21854 21856 1 0.13986 296436.400000
21856 21857 1 0.10860 301825.392000
21858 21859 1 0.10860 301825.392000
21859 21860 1 0.13986 296436.400000
21859 21868 1 0.13986 296436.400000
21860 21861 1 0.18850 35430.112000
21860 21862 1 0.13986 296436.400000
21862 21863 1 0.10860 301825.392000
21862 21864 1 0.13986 296436.400000
21864 21865 1 0.10860 301825.392000
21864 21866 1 0.13986 296436.400000
21866 21867 1 0.10860 301825.392000
21866 21868 1 0.13986 296436.400000
21868 21869 1 0.10860 301825.392000
21870 21871 1 0.10860 301825.392000
21871 21872 1 0.13986 296436.400000
21871 21880 1 0.13986 296436.400000
21872 21873 1 0.18850 35430.112000
21872 21874 1 0.13986 296436.400000
21874 21875 1 0.10860 301825.392000
21874 21876 1 0.13986 296436.400000
21876 21877 1 0.10860 301825.392000
21876 21878 1 0.13986 296436.400000
21878 21879 1 0.10860 301825.392000
21878 21880 1 0.13986 296436.400000
21880 21881 1 0.10860 301825.392000
21882 21883 1 0.10860 301825.392000
21883 21884 1 0.13986 296436.400000
21883 21892 1 0.13986 296436.400000
21884 21885 1 0.18850 35430.112000
21884 21886 1 0.13986 296436.400000
21886 21887 1 0.10860 301825.392000
21886 21888 1 0.13986 296436.400000
21888 21889 1 0.10860 301825.392000
21888 21890 1 0.13986 296436.400000
21890 21891 1 0.10860 301825.392000
21890 21892 1 0.13986 296436.400000
21892 21893 1 0.10860 301825.392000
21894 21895 1 0.10860 301825.392000
21895 21896 1 0.13986 296436.400000
21895 21904 1 0.13986 296436.400000
21896 21897 1 0.18850 35430.112000
21896 21898 1 0.13986 296436.400000
21898 21899 1 0.10860 301825.392000
21898 21900 1 0.13986 296436.400000
21900 21901 1 0.10860 301825.392000
21900 21902 1 0.13986 296436.400000
21902 21903 1 0.10860 301825.392000
21902 21904 1 0.13986 296436.400000
21904 21905 1 0.10860 301825.392000
21906 21907 1 0.10860 301825.392000
21907 21908 1 0.13986 296436.400000
21907 21916 1 0.13986 296436.400000
21908 21909 1 0.18850 35430.112000
21908 21910 1 0.13986 296436.400000
21910 21911 1 0.10860 301825.392000
21910 21912 1 0.13986 296436.400000
21912 21913 1 0.10860 301825.392000
21912 21914 1 0.13986 296436.400000
21914 21915 1 0.10860 301825.392000
21914 21916 1 0.13986 296436.400000
21916 21917 1 0.10860 301825.392000
21918 21919 1 0.10860 301825.392000
21919 21920 1 0.13986 296436.400000
21919 21928 1 0.13986 296436.400000
21920 21921 1 0.18850 35430.112000
21920 21922 1 0.13986 296436.400000
21922 21923 1 0.10860 301825.392000
21922 21924 1 0.13986 296436.400000
21924 21925 1 0.10860 301825.392000
21924 21926 1 0.13986 296436.400000
21926 21927 1 0.10860 301825.392000
21926 21928 1 0.13986 296436.400000
21928 21929 1 0.10860 301825.392000
21930 21931 1 0.10860 301825.392000
21931 21932 1 0.13986 296436.400000
21931 21940 1 0.13986 296436.400000
21932 21933 1 0.18850 35430.112000
21932 21934 1 0.13986 296436.400000
21934 21935 1 0.10860 301825.392000
21934 21936 1 0.13986 296436.400000
21936 21937 1 0.10860 301825.392000
21936 21938 1 0.13986 296436.400000
21938 21939 1 0.10860 301825.392000
21938 21940 1 0.13986 296436.400000
21940 21941 1 0.10860 301825.392000
21942 21943 1 0.10860 301825.392000
21943 21944 1 0.13986 296436.400000
21943 21952 1 0.13986 296436.400000
21944 21945 1 0.18850 35430.112000
21944 21946 1 0.13986 296436.400000
21946 21947 1 0.10860 301825.392000
21946 21948 1 0.13986 296436.400000
21948 21949 1 0.10860 301825.392000
21948 21950 1 0.13986 296436.400000
21950 21951 1 0.10860 301825.392000
21950 21952 1 0.13986 296436.400000
21952 21953 1 0.10860 301825.392000
21954 21955 1 0.10860 301825.392000
21955 21956 1 0.13986 296436.400000
21955 21964 1 0.13986 296436.400000
21956 21957 1 0.18850 35430.112000
21956 21958 1 0.13986 296436.400000
21958 21959 1 0.10860 301825.392000
21958 21960 1 0.13986 296436.400000
21960 21961 1 0.10860 301825.392000
21960 21962 1 0.13986 296436.400000
21962 21963 1 0.10860 301825.392000
21962 21964 1 0.13986 296436.400000
21964 21965 1 0.10860 301825.392000
21966 21967 1 0.10860 301825.392000
21967 21968 1 0.13986 296436.400000
21967 21976 1 0.13986 296436.400000
21968 21969 1 0.18850 35430.112000
21968 21970 1 0.13986 296436.400000
21970 21971 1 0.10860 301825.392000
21970 21972 1 0.13986 296436.400000
21972 21973 1 0.10860 301825.392000
21972 21974 1 0.13986 296436.400000
21974 21975 1 0.10860 301825.392000
21974 21976 1 0.13986 296436.400000
21976 21977 1 0.10860 301825.392000
21978 21979 1 0.10860 301825.392000
21979 21980 1 0.13986 296436.400000
21979 21988 1 0.13986 296436.400000
21980 21981 1 0.18850 35430.112000
21980 21982 1 0.13986 296436.400000
21982 21983 1 0.10860 301825.392000
21982 21984 1 0.13986 296436.400000
21984 21985 1 0.10860 301825.392000
21984 21986 1 0.13986 296436.400000
21986 21987 1 0.10860 301825.392000
21986 21988 1 0.13986 296436.400000
21988 21989 1 0.10860 301825.392000
21990 21991 1 0.10860 301825.392000
21991 21992 1 0.13986 296436.400000
21991 22000 1 0.13986 296436.400000
21992 21993 1 0.18850 35430.112000
21992 21994 1 0.13986 296436.400000
21994 21995 1 0.10860 301825.392000
21994 21996 1 0.13986 296436.400000
21996 21997 1 0.10860 301825.392000
21996 21998 1 0.13986 296436.400000
21998 21999 1 0.10860 301825.392000
21998 22000 1 0.13986 296436.400000
22000 22001 1 0.10860 301825.392000
22002 22003 1 0.10860 301825.392000
22003 22004 1 0.13986 296436.400000
22003 22012 1 0.13986 296436.400000
22004 22005 1 0.18850 35430.112000
22004 22006 1 0.13986 296436.400000
22006 22007 1 0.10860 301825.392000
22006 22008 1 0.13986 296436.400000
22008 22009 1 0.10860 301825.392000
22008 22010 1 0.13986 296436.400000
22010 22011 1 0.10860 301825.392000
22010 22012 1 0.13986 296436.400000
22012 22013 1 0.10860 301825.392000
22014 22015 1 0.10860 301825.392000
22015 22016 1 0.13986 296436.400000
22015 22024 1 0.13986 296436.400000
22016 22017 1 0.18850 35430.112000
22016 22018 1 0.13986 296436.400000
22018 22019 1 0.10860 301825.392000
22018 22020 1 0.13986 296436.400000
22020 22021 1 0.10860 301825.392000
22020 22022 1 0.13986 296436.400000
22022 22023 1 0.10860 301825.392000
22022 22024 1 0.13986 296436.400000
22024 22025 1 0.10860 301825.392000
22026 22027 1 0.10860 301825.392000
22027 22028 1 0.13986 296436.400000
22027 22036 1 0.13986 296436.400000
22028 22029 1 0.18850 35430.112000
22028 22030 1 0.13986 296436.400000
22030 22031 1 0.10860 301825.392000
22030 22032 1 0.13986 296436.400000
22032 22033 1 0.10860 301825.392000
22032 22034 1 0.13986 296436.400000
22034 22035 1 0.10860 301825.392000
22034 22036 1 0.13986 296436.400000
22036 22037 1 0.10860 301825.392000
22038 22039 1 0.10860 301825.392000
22039 22040 1 0.13986 296436.400000
22039 22048 1 0.13986 296436.400000
22040 22041 1 0.18850 35430.112000
22040 22042 1 0.13986 296436.400000
22042 22043 1 0.10860 301825.392000
22042 22044 1 0.13986 296436.400000
22044 22045 1 0.10860 301825.392000
22044 22046 1 0.13986 296436.400000
22046 22047 1 0.10860 301825.392000
22046 22048 1 0.13986 296436.400000
22048 22049 1 0.10860 301825.392000
22050 22051 1 0.10860 301825.392000
22051 22052 1 0.13986 296436.400000
22051 22060 1 0.13986 296436.400000
22052 22053 1 0.18850 35430.112000
22052 22054 1 0.13986 296436.400000
22054 22055 1 0.10860 301825.392000
22054 22056 1 0.13986 296436.400000
22056 22057 1 0.10860 301825.392000
22056 22058 1 0.13986 296436.400000
22058 22059 1 0.10860 301825.392000
22058 22060 1 0.13986 296436.400000
22060 22061 1 0.10860 301825.392000
22062 22063 1 0.10860 301825.392000
22063 22064 1 0.13986 296436.400000
22063 22072 1 0.13986 296436.400000
22064 22065 1 0.18850 35430.112000
22064 22066 1 0.13986 296436.400000
22066 22067 1 0.10860 301825.392000
22066 22068 1 0.13986 296436.400000
22068 22069 1 0.10860 301825.392000
22068 22070 1 0.13986 296436.400000
22070 22071 1 0.10860 301825.392000
22070 22072 1 0.13986 296436.400000
22072 22073 1 0.10860 301825.392000
22074 22075 1 0.10860 301825.392000
22075 22076 1 0.13986 296436.400000
22075 22084 1 0.13986 296436.400000
22076 22077 1 0.18850 35430.112000
22076 22078 1 0.13986 296436.400000
22078 22079 1 0.10860 301825.392000
22078 22080 1 0.13986 296436.400000
22080 22081 1 0.10860 301825.392000
22080 22082 1 0.13986 296436.400000
22082 22083 1 0.10860 301825.392000
22082 22084 1 0.13986 296436.400000
22084 22085 1 0.10860 301825.392000
22086 22087 1 0.10860 301825.392000
22087 22088 1 0.13986 296436.400000
22087 22096 1 0.13986 296436.400000
22088 22089 1 0.18850 35430.112000
22088 22090 1 0.13986 296436.400000
22090 22091 1 0.10860 301825.392000
22090 22092 1 0.13986 296436.400000
22092 22093 1 0.10860 301825.392000
22092 22094 1 0.13986 296436.400000
22094 22095 1 0.10860 301825.392000
22094 22096 1 0.13986 296436.400000
22096 22097 1 0.10860 301825.392000
22098 22099 1 0.10860 301825.392000
22099 22100 1 0.13986 296436.400000
22099 22108 1 0.13986 296436.400000
22100 22101 1 0.18850 35430.112000
22100 22102 1 0.13986 296436.400000
22102 22103 1 0.10860 301825.392000
22102 22104 1 0.13986 296436.400000
22104 22105 1 0.10860 301825.392000
22104 22106 1 0.13986 296436.400000
22106 22107 1 0.10860 301825.392000
22106 22108 1 0.13986 296436.400000
22108 22109 1 0.10860 301825.392000
22110 22111 1 0.10860 301825.392000
22111 22112 1 0.13986 296436.400000
22111 22120 1 0.13986 296436.400000
22112 22113 1 0.18850 35430.112000
22112 22114 1 0.13986 296436.400000
22114 22115 1 0.10860 301825.392000
22114 22116 1 0.13986 296436.400000
22116 22117 1 0.10860 301825.392000
22116 22118 1 0.13986 296436.400000
22118 22119 1 0.10860 301825.392000
22118 22120 1 0.13986 296436.400000
22120 22121 1 0.10860 301825.392000
22122 22123 1 0.10860 301825.392000
22123 22124 1 0.13986 296436.400000
22123 22132 1 0.13986 296436.400000
22124 22125 1 0.18850 35430.112000
22124 22126 1 0.13986 296436.400000
22126 22127 1 0.10860 301825.392000
22126 22128 1 0.13986 296436.400000
22128 22129 1 0.10860 301825.392000
22128 22130 1 0.13986 296436.400000
22130 22131 1 0.10860 301825.392000
22130 22132 1 0.13986 296436.400000
22132 22133 1 0.10860 301825.392000
22134 22135 1 0.10860 301825.392000
22135 22136 1 0.13986 296436.400000
22135 22144 1 0.13986 296436.400000
22136 22137 1 0.18850 35430.112000
22136 22138 1 0.13986 296436.400000
22138 22139 1 0.10860 301825.392000
22138 22140 1 0.13986 296436.400000
22140 22141 1 0.10860 301825.392000
22140 22142 1 0.13986 296436.400000
22142 22143 1 0.10860 301825.392000
22142 22144 1 0.13986 296436.400000
22144 22145 1 0.10860 301825.392000
22146 22147 1 0.10860 301825.392000
22147 22148 1 0.13986 296436.400000
22147 22156 1 0.13986 296436.400000
22148 22149 1 0.18850 35430.112000
22148 22150 1 0.13986 296436.400000
22150 22151 1 0.10860 301825.392000
22150 22152 1 0.13986 296436.400000
22152 22153 1 0.10860 301825.392000
22152 22154 1 0.13986 296436.400000
22154 22155 1 0.10860 301825.392000
22154 22156 1 0.13986 296436.400000
22156 22157 1 0.10860 301825.392000
22158 22159 1 0.10860 301825.392000
22159 22160 1 0.13986 296436.400000
22159 22168 1 0.13986 296436.400000
22160 22161 1 0.18850 35430.112000
22160 22162 1 0.13986 296436.400000
22162 22163 1 0.10860 301825.392000
22162 22164 1 0.13986 296436.400000
22164 22165 1 0.10860 301825.392000
22164 22166 1 0.13986 296436.400000
22166 22167 1 0.10860 301825.392000
22166 22168 1 0.13986 296436.400000
22168 22169 1 0.10860 301825.392000
22170 22171 1 0.10860 301825.392000
22171 22172 1 0.13986 296436.400000
22171 22180 1 0.13986 296436.400000
22172 22173 1 0.18850 35430.112000
22172 22174 1 0.13986 296436.400000
22174 22175 1 0.10860 301825.392000
22174 22176 1 0.13986 296436.400000
22176 22177 1 0.10860 301825.392000
22176 22178 1 0.13986 296436.400000
22178 22179 1 0.10860 301825.392000
22178 22180 1 0.13986 296436.400000
22180 22181 1 0.10860 301825.392000
22182 22183 1 0.10860 301825.392000
22183 22184 1 0.13986 296436.400000
22183 22192 1 0.13986 296436.400000
22184 22185 1 0.18850 35430.112000
22184 22186 1 0.13986 296436.400000
22186 22187 1 0.10860 301825.392000
22186 22188 1 0.13986 296436.400000
22188 22189 1 0.10860 301825.392000
22188 22190 1 0.13986 296436.400000
22190 22191 1 0.10860 301825.392000
22190 22192 1 0.13986 296436.400000
22192 22193 1 0.10860 301825.392000
22194 22195 1 0.10860 301825.392000
22195 22196 1 0.13986 296436.400000
22195 22204 1 0.13986 296436.400000
22196 22197 1 0.18850 35430.112000
22196 22198 1 0.13986 296436.400000
22198 22199 1 0.10860 301825.392000
22198 22200 1 0.13986 296436.400000
22200 22201 1 0.10860 301825.392000
22200 22202 1 0.13986 296436.400000
22202 22203 1 0.10860 301825.392000
22202 22204 1 0.13986 296436.400000
22204 22205 1 0.10860 301825.392000
22206 22207 1 0.10860 301825.392000
22207 22208 1 0.13986 296436.400000
22207 22216 1 0.13986 296436.400000
22208 22209 1 0.18850 35430.112000
22208 22210 1 0.13986 296436.400000
22210 22211 1 0.10860 301825.392000
22210 22212 1 0.13986 296436.400000
22212 22213 1 0.10860 301825.392000
22212 22214 1 0.13986 296436.400000
22214 22215 1 0.10860 301825.392000
22214 22216 1 0.13986 296436.400000
22216 22217 1 0.10860 301825.392000
22218 22219 1 0.10860 301825.392000
22219 22220 1 0.13986 296436.400000
22219 22228 1 0.13986 296436.400000
22220 22221 1 0.18850 35430.112000
22220 22222 1 0.13986 296436.400000
22222 22223 1 0.10860 301825.392000
22222 22224 1 0.13986 296436.400000
22224 22225 1 0.10860 301825.392000
22224 22226 1 0.13986 296436.400000
22226 22227 1 0.10860 301825.392000
22226 22228 1 0.13986 296436.400000
22228 22229 1 0.10860 301825.392000
22230 22231 1 0.10860 301825.392000
22231 22232 1 0.13986 296436.400000
22231 22240 1 0.13986 296436.400000
22232 22233 1 0.18850 35430.112000
22232 22234 1 0.13986 296436.400000
22234 22235 1 0.10860 301825.392000
22234 22236 1 0.13986 296436.400000
22236 22237 1 0.10860 301825.392000
22236 22238 1 0.13986 296436.400000
22238 22239 1 0.10860 301825.392000
22238 22240 1 0.13986 296436.400000
22240 22241 1 0.10860 301825.392000
22242 22243 1 0.10860 301825.392000
22243 22244 1 0.13986 296436.400000
22243 22252 1 0.13986 296436.400000
22244 22245 1 0.18850 35430.112000
22244 22246 1 0.13986 296436.400000
22246 22247 1 0.10860 301825.392000
22246 22248 1 0.13986 296436.400000
22248 22249 1 0.10860 301825.392000
22248 22250 1 0.13986 296436.400000
22250 22251 1 0.10860 301825.392000
22250 22252 1 0.13986 296436.400000
22252 22253 1 0.10860 301825.392000
22254 22255 1 0.10860 301825.392000
22255 22256 1 0.13986 296436.400000
22255 22264 1 0.13986 296436.400000
22256 22257 1 0.18850 35430.112000
22256 22258 1 0.13986 296436.400000
22258 22259 1 0.10860 301825.392000
22258 22260 1 0.13986 296436.400000
22260 22261 1 0.10860 301825.392000
22260 22262 1 0.13986 296436.400000
22262 22263 1 0.10860 301825.392000
22262 22264 1 0.13986 296436.400000
22264 22265 1 0.10860 301825.392000
22266 22267 1 0.10860 301825.392000
22267 22268 1 0.13986 296436.400000
22267 22276 1 0.13986 296436.400000
22268 22269 1 0.18850 35430.112000
22268 22270 1 0.13986 296436.400000
22270 22271 1 0.10860 301825.392000
22270 22272 1 0.13986 296436.400000
22272 22273 1 0.10860 301825.392000
22272 22274 1 0.13986 296436.400000
22274 22275 1 0.10860 301825.392000
22274 22276 1 0.13986 296436.400000
22276 22277 1 0.10860 301825.392000
22278 22279 1 0.10860 301825.392000
22279 22280 1 0.13986 296436.400000
22279 22288 1 0.13986 296436.400000
22280 22281 1 0.18850 35430.112000
22280 22282 1 0.13986 296436.400000
22282 22283 1 0.10860 301825.392000
22282 22284 1 0.13986 296436.400000
22284 22285 1 0.10860 301825.392000
22284 22286 1 0.13986 296436.400000
22286 22287 1 0.10860 301825.392000
22286 22288 1 0.13986 296436.400000
22288 22289 1 0.10860 301825.392000
22290 22291 1 0.10860 301825.392000
22291 22292 1 0.13986 296436.400000
22291 22300 1 0.13986 296436.400000
22292 22293 1 0.18850 35430.112000
22292 22294 1 0.13986 296436.400000
22294 22295 1 0.10860 301825.392000
22294 22296 1 0.13986 296436.400000
22296 22297 1 0.10860 301825.392000
22296 22298 1 0.13986 296436.400000
22298 22299 1 0.10860 301825.392000
22298 22300 1 0.13986 296436.400000
22300 22301 1 0.10860 301825.392000
22302 22303 1 0.10860 301825.392000
22303 22304 1 0.13986 296436.400000
22303 22312 1 0.13986 296436.400000
22304 22305 1 0.18850 35430.112000
22304 22306 1 0.13986 296436.400000
22306 22307 1 0.10860 301825.392000
22306 22308 1 0.13986 296436.400000
22308 22309 1 0.10860 301825.392000
22308 22310 1 0.13986 296436.400000
22310 22311 1 0.10860 301825.392000
22310 22312 1 0.13986 296436.400000
22312 22313 1 0.10860 301825.392000
22314 22315 1 0.10860 301825.392000
22315 22316 1 0.13986 296436.400000
22315 22324 1 0.13986 296436.400000
22316 22317 1 0.18850 35430.112000
22316 22318 1 0.13986 296436.400000
22318 22319 1 0.10860 301825.392000
22318 22320 1 0.13986 296436.400000
22320 22321 1 0.10860 301825.392000
22320 22322 1 0.13986 296436.400000
22322 22323 1 0.10860 301825.392000
22322 22324 1 0.13986 296436.400000
22324 22325 1 0.10860 301825.392000
22326 22327 1 0.10860 301825.392000
22327 22328 1 0.13986 296436.400000
22327 22336 1 0.13986 296436.400000
22328 22329 1 0.18850 35430.112000
22328 22330 1 0.13986 296436.400000
22330 22331 1 0.10860 301825.392000
22330 22332 1 0.13986 296436.400000
22332 22333 1 0.10860 301825.392000
22332 22334 1 0.13986 296436.400000
22334 22335 1 0.10860 301825.392000
22334 22336 1 0.13986 296436.400000
22336 22337 1 0.10860 301825.392000
22338 22339 1 0.10860 301825.392000
22339 22340 1 0.13986 296436.400000
22339 22348 1 0.13986 296436.400000
22340 22341 1 0.18850 35430.112000
22340 22342 1 0.13986 296436.400000
22342 22343 1 0.10860 301825.392000
22342 22344 1 0.13986 296436.400000
22344 22345 1 0.10860 301825.392000
22344 22346 1 0.13986 296436.400000
22346 22347 1 0.10860 301825.392000
22346 22348 1 0.13986 296436.400000
22348 22349 1 0.10860 301825.392000
22350 22351 1 0.10860 301825.392000
22351 22352 1 0.13986 296436.400000
22351 22360 1 0.13986 296436.400000
22352 22353 1 0.18850 35430.112000
22352 22354 1 0.13986 296436.400000
22354 22355 1 0.10860 301825.392000
22354 22356 1 0.13986 296436.400000
22356 22357 1 0.10860 301825.392000
22356 22358 1 0.13986 296436.400000
22358 22359 1 0.10860 301825.392000
22358 22360 1 0.13986 296436.400000
22360 22361 1 0.10860 301825.392000
22362 22363 1 0.10860 301825.392000
22363 22364 1 0.13986 296436.400000
22363 22372 1 0.13986 296436.400000
22364 22365 1 0.18850 35430.112000
22364 22366 1 0.13986 296436.400000
22366 22367 1 0.10860 301825.392000
22366 22368 1 0.13986 296436.400000
22368 22369 1 0.10860 301825.392000
22368 22370 1 0.13986 296436.400000
22370 22371 1 0.10860 301825.392000
22370 22372 1 0.13986 296436.400000
22372 22373 1 0.10860 301825.392000
22374 22375 1 0.10860 301825.392000
22375 22376 1 0.13986 296436.400000
22375 22384 1 0.13986 296436.400000
22376 22377 1 0.18850 35430.112000
22376 22378 1 0.13986 296436.400000
22378 22379 1 0.10860 301825.392000
22378 22380 1 0.13986 296436.400000
22380 22381 1 0.10860 301825.392000
22380 22382 1 0.13986 296436.400000
22382 22383 1 0.10860 301825.392000
22382 22384 1 0.13986 296436.400000
22384 22385 1 0.10860 301825.392000
22386 22387 1 0.10860 301825.392000
22387 22388 1 0.13986 296436.400000
22387 22396 1 0.13986 296436.400000
22388 22389 1 0.18850 35430.112000
22388 22390 1 0.13986 296436.400000
22390 22391 1 0.10860 301825.392000
22390 22392 1 0.13986 296436.400000
22392 22393 1 0.10860 301825.392000
22392 22394 1 0.13986 296436.400000
22394 22395 1 0.10860 301825.392000
22394 22396 1 0.13986 296436.400000
22396 22397 1 0.10860 301825.392000
22398 22399 1 0.10860 301825.392000
22399 22400 1 0.13986 296436.400000
22399 22408 1 0.13986 296436.400000
22400 22401 1 0.18850 35430.112000
22400 22402 1 0.13986 296436.400000
22402 22403 1 0.10860 301825.392000
22402 22404 1 0.13986 296436.400000
22404 22405 1 0.10860 301825.392000
22404 22406 1 0.13986 296436.400000
22406 22407 1 0.10860 301825.392000
22406 22408 1 0.13986 296436.400000
22408 22409 1 0.10860 301825.392000
22410 22411 1 0.10860 301825.392000
22411 22412 1 0.13986 296436.400000
22411 22420 1 0.13986 296436.400000
22412 22413 1 0.18850 35430.112000
22412 22414 1 0.13986 296436.400000
22414 22415 1 0.10860 301825.392000
22414 22416 1 0.13986 296436.400000
22416 22417 1 0.10860 301825.392000
22416 22418 1 0.13986 296436.400000
22418 22419 1 0.10860 301825.392000
22418 22420 1 0.13986 296436.400000
22420 22421 1 0.10860 301825.392000
22422 22423 1 0.10860 301825.392000
22423 22424 1 0.13986 296436.400000
22423 22432 1 0.13986 296436.400000
22424 22425 1 0.18850 35430.112000
22424 22426 1 0.13986 296436.400000
22426 22427 1 0.10860 301825.392000
22426 22428 1 0.13986 296436.400000
22428 22429 1 0.10860 301825.392000
22428 22430 1 0.13986 296436.400000
22430 22431 1 0.10860 301825.392000
22430 22432 1 0.13986 296436.400000
22432 22433 1 0.10860 301825.392000
22434 22435 1 0.10860 301825.392000
22435 22436 1 0.13986 296436.400000
22435 22444 1 0.13986 296436.400000
22436 22437 1 0.18850 35430.112000
22436 22438 1 0.13986 296436.400000
22438 22439 1 0.10860 301825.392000
22438 22440 1 0.13986 296436.400000
22440 22441 1 0.10860 301825.392000
22440 22442 1 0.13986 296436.400000
22442 22443 1 0.10860 301825.392000
22442 22444 1 0.13986 296436.400000
22444 22445 1 0.10860 301825.392000
22446 22447 1 0.10860 301825.392000
22447 22448 1 0.13986 296436.400000
22447 22456 1 0.13986 296436.400000
22448 22449 1 0.18850 35430.112000
22448 22450 1 0.13986 296436.400000
22450 22451 1 0.10860 301825.392000
22450 22452 1 0.13986 296436.400000
22452 22453 1 0.10860 301825.392000
22452 22454 1 0.13986 296436.400000
22454 22455 1 0.10860 301825.392000
22454 22456 1 0.13986 296436.400000
22456 22457 1 0.10860 301825.392000
22458 22459 1 0.10860 301825.392000
22459 22460 1 0.13986 296436.400000
22459 22468 1 0.13986 296436.400000
22460 22461 1 0.18850 35430.112000
22460 22462 1 0.13986 296436.400000
22462 22463 1 0.10860 301825.392000
22462 22464 1 0.13986 296436.400000
22464 22465 1 0.10860 301825.392000
22464 22466 1 0.13986 296436.400000
22466 22467 1 0.10860 301825.392000
22466 22468 1 0.13986 296436.400000
22468 22469 1 0.10860 301825.392000
22470 22471 1 0.10860 301825.392000
22471 22472 1 0.13986 296436.400000
22471 22480 1 0.13986 296436.400000
22472 22473 1 0.18850 35430.112000
22472 22474 1 0.13986 296436.400000
22474 22475 1 0.10860 301825.392000
22474 22476 1 0.13986 296436.400000
22476 22477 1 0.10860 301825.392000
22476 22478 1 0.13986 296436.400000
22478 22479 1 0.10860 301825.392000
22478 22480 1 0.13986 296436.400000
22480 22481 1 0.10860 301825.392000
22482 22483 1 0.10860 301825.392000
22483 22484 1 0.13986 296436.400000
22483 22492 1 0.13986 296436.400000
22484 22485 1 0.18850 35430.112000
22484 22486 1 0.13986 296436.400000
22486 22487 1 0.10860 301825.392000
22486 22488 1 0.13986 296436.400000
22488 22489 1 0.10860 301825.392000
22488 22490 1 0.13986 296436.400000
22490 22491 1 0.10860 301825.392000
22490 22492 1 0.13986 296436.400000
22492 22493 1 0.10860 301825.392000
22494 22495 1 0.10860 301825.392000
22495 22496 1 0.13986 296436.400000
22495 22504 1 0.13986 296436.400000
22496 22497 1 0.18850 35430.112000
22496 22498 1 0.13986 296436.400000
22498 22499 1 0.10860 301825.392000
22498 22500 1 0.13986 296436.400000
22500 22501 1 0.10860 301825.392000
22500 22502 1 0.13986 296436.400000
22502 22503 1 0.10860 301825.392000
22502 22504 1 0.13986 296436.400000
22504 22505 1 0.10860 301825.392000
22506 22507 1 0.10860 301825.392000
22507 22508 1 0.13986 296436.400000
22507 22516 1 0.13986 296436.400000
22508 22509 1 0.18850 35430.112000
22508 22510 1 0.13986 296436.400000
22510 22511 1 0.10860 301825.392000
22510 22512 1 0.13986 296436.400000
22512 22513 1 0.10860 301825.392000
22512 22514 1 0.13986 296436.400000
22514 22515 1 0.10860 301825.392000
22514 22516 1 0.13986 296436.400000
22516 22517 1 0.10860 301825.392000
22518 22519 1 0.10860 301825.392000
22519 22520 1 0.13986 296436.400000
22519 22528 1 0.13986 296436.400000
22520 22521 1 0.18850 35430.112000
22520 22522 1 0.13986 296436.400000
22522 22523 1 0.10860 301825.392000
22522 22524 1 0.13986 296436.400000
22524 22525 1 0.10860 301825.392000
22524 22526 1 0.13986 296436.400000
22526 22527 1 0.10860 301825.392000
22526 22528 1 0.13986 296436.400000
22528 22529 1 0.10860 301825.392000
22530 22531 1 0.10860 301825.392000
22531 22532 1 0.13986 296436.400000
22531 22540 1 0.13986 296436.400000
22532 22533 1 0.18850 35430.112000
22532 22534 1 0.13986 296436.400000
22534 22535 1 0.10860 301825.392000
22534 22536 1 0.13986 296436.400000
22536 22537 1 0.10860 301825.392000
22536 22538 1 0.13986 296436.400000
22538 22539 1 0.10860 301825.392000
22538 22540 1 0.13986 296436.400000
22540 22541 1 0.10860 301825.392000
22542 22543 1 0.10860 301825.392000
22543 22544 1 0.13986 296436.400000
22543 22552 1 0.13986 296436.400000
22544 22545 1 0.18850 35430.112000
22544 22546 1 0.13986 296436.400000
22546 22547 1 0.10860 301825.392000
22546 22548 1 0.13986 296436.400000
22548 22549 1 0.10860 301825.392000
22548 22550 1 0.13986 296436.400000
22550 22551 1 0.10860 301825.392000
22550 22552 1 0.13986 296436.400000
22552 22553 1 0.10860 301825.392000
22554 22555 1 0.10860 301825.392000
22555 22556 1 0.13986 296436.400000
22555 22564 1 0.13986 296436.400000
22556 22557 1 0.18850 35430.112000
22556 22558 1 0.13986 296436.400000
22558 22559 1 0.10860 301825.392000
22558 22560 1 0.13986 296436.400000
22560 22561 1 0.10860 301825.392000
22560 22562 1 0.13986 296436.400000
22562 22563 1 0.10860 301825.392000
22562 22564 1 0.13986 296436.400000
22564 22565 1 0.10860 301825.392000
22566 22567 1 0.10860 301825.392000
22567 22568 1 0.13986 296436.400000
22567 22576 1 0.13986 296436.400000
22568 22569 1 0.18850 35430.112000
22568 22570 1 0.13986 296436.400000
22570 22571 1 0.10860 301825.392000
22570 22572 1 0.13986 296436.400000
22572 22573 1 0.10860 301825.392000
22572 22574 1 0.13986 296436.400000
22574 22575 1 0.10860 301825.392000
22574 22576 1 0.13986 296436.400000
22576 22577 1 0.10860 301825.392000
22578 22579 1 0.10860 301825.392000
22579 22580 1 0.13986 296436.400000
22579 22588 1 0.13986 296436.400000
22580 22581 1 0.18850 35430.112000
22580 22582 1 0.13986 296436.400000
22582 22583 1 0.10860 301825.392000
22582 22584 1 0.13986 296436.400000
22584 22585 1 0.10860 301825.392000
22584 22586 1 0.13986 296436.400000
22586 22587 1 0.10860 301825.392000
22586 22588 1 0.13986 296436.400000
22588 22589 1 0.10860 301825.392000
22590 22591 1 0.10860 301825.392000
22591 22592 1 0.13986 296436.400000
22591 22600 1 0.13986 296436.400000
22592 22593 1 0.18850 35430.112000
22592 22594 1 0.13986 296436.400000
22594 22595 1 0.10860 301825.392000
22594 22596 1 0.13986 296436.400000
22596 22597 1 0.10860 301825.392000
22596 22598 1 0.13986 296436.400000
22598 22599 1 0.10860 301825.392000
22598 22600 1 0.13986 296436.400000
22600 22601 1 0.10860 301825.392000
22602 22603 1 0.10860 301825.392000
22603 22604 1 0.13986 296436.400000
22603 22612 1 0.13986 296436.400000
22604 22605 1 0.18850 35430.112000
22604 22606 1 0.13986 296436.400000
22606 22607 1 0.10860 301825.392000
22606 22608 1 0.13986 296436.400000
22608 22609 1 0.10860 301825.392000
22608 22610 1 0.13986 296436.400000
22610 22611 1 0.10860 301825.392000
22610 22612 1 0.13986 296436.400000
22612 22613 1 0.10860 301825.392000
22614 22615 1 0.10860 301825.392000
22615 22616 1 0.13986 296436.400000
22615 22624 1 0.13986 296436.400000
22616 22617 1 0.18850 35430.112000
22616 22618 1 0.13986 296436.400000
22618 22619 1 0.10860 301825.392000
22618 22620 1 0.13986 296436.400000
22620 22621 1 0.10860 301825.392000
22620 22622 1 0.13986 296436.400000
22622 22623 1 0.10860 301825.392000
22622 22624 1 0.13986 296436.400000
22624 22625 1 0.10860 301825.392000
22626 22627 1 0.10860 301825.392000
22627 22628 1 0.13986 296436.400000
22627 22636 1 0.13986 296436.400000
22628 22629 1 0.18850 35430.112000
22628 22630 1 0.13986 296436.400000
22630 22631 1 0.10860 301825.392000
22630 22632 1 0.13986 296436.400000
22632 22633 1 0.10860 301825.392000
22632 22634 1 0.13986 296436.400000
22634 22635 1 0.10860 301825.392000
22634 22636 1 0.13986 296436.400000
22636 22637 1 0.10860 301825.392000
22638 22639 1 0.10860 301825.392000
22639 22640 1 0.13986 296436.400000
22639 22648 1 0.13986 296436.400000
22640 22641 1 0.18850 35430.112000
22640 22642 1 0.13986 296436.400000
22642 22643 1 0.10860 301825.392000
22642 22644 1 0.13986 296436.400000
22644 22645 1 0.10860 301825.392000
22644 22646 1 0.13986 296436.400000
22646 22647 1 0.10860 301825.392000
22646 22648 1 0.13986 296436.400000
22648 22649 1 0.10860 301825.392000
22650 22651 1 0.10860 301825.392000
22651 22652 1 0.13986 296436.400000
22651 22660 1 0.13986 296436.400000
22652 22653 1 0.18850 35430.112000
22652 22654 1 0.13986 296436.400000
22654 22655 1 0.10860 301825.392000
22654 22656 1 0.13986 296436.400000
22656 22657 1 0.10860 301825.392000
22656 22658 1 0.13986 296436.400000
22658 22659 1 0.10860 301825.392000
22658 22660 1 0.13986 296436.400000
22660 22661 1 0.10860 301825.392000
22662 22663 1 0.10860 301825.392000
22663 22664 1 0.13986 296436.400000
22663 22672 1 0.13986 296436.400000
22664 22665 1 0.18850 35430.112000
22664 22666 1 0.13986 296436.400000
22666 22667 1 0.10860 301825.392000
22666 22668 1 0.13986 296436.400000
22668 22669 1 0.10860 301825.392000
22668 22670 1 0.13986 296436.400000
22670 22671 1 0.10860 301825.392000
22670 22672 1 0.13986 296436.400000
22672 22673 1 0.10860 301825.392000
22674 22675 1 0.10860 301825.392000
22675 22676 1 0.13986 296436.400000
22675 22684 1 0.13986 296436.400000
22676 22677 1 0.18850 35430.112000
22676 22678 1 0.13986 296436.400000
22678 22679 1 0.10860 301825.392000
22678 22680 1 0.13986 296436.400000
22680 22681 1 0.10860 301825.392000
22680 22682 1 0.13986 296436.400000
22682 22683 1 0.10860 301825.392000
22682 22684 1 0.13986 296436.400000
22684 22685 1 0.10860 301825.392000
22686 22687 1 0.10860 301825.392000
22687 22688 1 0.13986 296436.400000
22687 22696 1 0.13986 296436.400000
22688 22689 1 0.18850 35430.112000
22688 22690 1 0.13986 296436.400000
22690 22691 1 0.10860 301825.392000
22690 22692 1 0.13986 296436.400000
22692 22693 1 0.10860 301825.392000
22692 22694 1 0.13986 296436.400000
22694 22695 1 0.10860 301825.392000
22694 22696 1 0.13986 296436.400000
22696 22697 1 0.10860 301825.392000
22698 22699 1 0.10860 301825.392000
22699 22700 1 0.13986 296436.400000
22699 22708 1 0.13986 296436.400000
22700 22701 1 0.18850 35430.112000
22700 22702 1 0.13986 296436.400000
22702 22703 1 0.10860 301825.392000
22702 22704 1 0.13986 296436.400000
22704 22705 1 0.10860 301825.392000
22704 22706 1 0.13986 296436.400000
22706 22707 1 0.10860 301825.392000
22706 22708 1 0.13986 296436.400000
22708 22709 1 0.10860 301825.392000
22710 22711 1 0.10860 301825.392000
22711 22712 1 0.13986 296436.400000
22711 22720 1 0.13986 296436.400000
22712 22713 1 0.18850 35430.112000
22712 22714 1 0.13986 296436.400000
22714 22715 1 0.10860 301825.392000
22714 22716 1 0.13986 296436.400000
22716 22717 1 0.10860 301825.392000
22716 22718 1 0.13986 296436.400000
22718 22719 1 0.10860 301825.392000
22718 22720 1 0.13986 296436.400000
22720 22721 1 0.10860 301825.392000
22722 22723 1 0.10860 301825.392000
22723 22724 1 0.13986 296436.400000
22723 22732 1 0.13986 296436.400000
22724 22725 1 0.18850 35430.112000
22724 22726 1 0.13986 296436.400000
22726 22727 1 0.10860 301825.392000
22726 22728 1 0.13986 296436.400000
22728 22729 1 0.10860 301825.392000
22728 22730 1 0.13986 296436.400000
22730 22731 1 0.10860 301825.392000
22730 22732 1 0.13986 296436.400000
22732 22733 1 0.10860 301825.392000
22734 22735 1 0.10860 301825.392000
22735 22736 1 0.13986 296436.400000
22735 22744 1 0.13986 296436.400000
22736 22737 1 0.18850 35430.112000
22736 22738 1 0.13986 296436.400000
22738 22739 1 0.10860 301825.392000
22738 22740 1 0.13986 296436.400000
22740 22741 1 0.10860 301825.392000
22740 22742 1 0.13986 296436.400000
22742 22743 1 0.10860 301825.392000
22742 22744 1 0.13986 296436.400000
22744 22745 1 0.10860 301825.392000
22746 22747 1 0.10860 301825.392000
22747 22748 1 0.13986 296436.400000
22747 22756 1 0.13986 296436.400000
22748 22749 1 0.18850 35430.112000
22748 22750 1 0.13986 296436.400000
22750 22751 1 0.10860 301825.392000
22750 22752 1 0.13986 296436.400000
22752 22753 1 0.10860 301825.392000
22752 22754 1 0.13986 296436.400000
22754 22755 1 0.10860 301825.392000
22754 22756 1 0.13986 296436.400000
22756 22757 1 0.10860 301825.392000
22758 22759 1 0.10860 301825.392000
22759 22760 1 0.13986 296436.400000
22759 22768 1 0.13986 296436.400000
22760 22761 1 0.18850 35430.112000
22760 22762 1 0.13986 296436.400000
22762 22763 1 0.10860 301825.392000
22762 22764 1 0.13986 296436.400000
22764 22765 1 0.10860 301825.392000
22764 22766 1 0.13986 296436.400000
22766 22767 1 0.10860 301825.392000
22766 22768 1 0.13986 296436.400000
22768 22769 1 0.10860 301825.392000
22770 22771 1 0.10860 301825.392000
22771 22772 1 0.13986 296436.400000
22771 22780 1 0.13986 296436.400000
22772 22773 1 0.18850 35430.112000
22772 22774 1 0.13986 296436.400000
22774 22775 1 0.10860 301825.392000
22774 22776 1 0.13986 296436.400000
22776 22777 1 0.10860 301825.392000
22776 22778 1 0.13986 296436.400000
22778 22779 1 0.10860 301825.392000
22778 22780 1 0.13986 296436.400000
22780 22781 1 0.10860 301825.392000
22782 22783 1 0.10860 301825.392000
22783 22784 1 0.13986 296436.400000
22783 22792 1 0.13986 296436.400000
22784 22785 1 0.18850 35430.112000
22784 22786 1 0.13986 296436.400000
22786 22787 1 0.10860 301825.392000
22786 22788 1 0.13986 296436.400000
22788 22789 1 0.10860 301825.392000
22788 22790 1 0.13986 296436.400000
22790 22791 1 0.10860 301825.392000
22790 22792 1 0.13986 296436.400000
22792 22793 1 0.10860 301825.392000
22794 22795 1 0.10860 301825.392000
22795 22796 1 0.13986 296436.400000
22795 22804 1 0.13986 296436.400000
22796 22797 1 0.18850 35430.112000
22796 22798 1 0.13986 296436.400000
22798 22799 1 0.10860 301825.392000
22798 22800 1 0.13986 296436.400000
22800 22801 1 0.10860 301825.392000
22800 22802 1 0.13986 296436.400000
22802 22803 1 0.10860 301825.392000
22802 22804 1 0.13986 296436.400000
22804 22805 1 0.10860 301825.392000
22806 22807 1 0.10860 301825.392000
22807 22808 1 0.13986 296436.400000
22807 22816 1 0.13986 296436.400000
22808 22809 1 0.18850 35430.112000
22808 22810 1 0.13986 296436.400000
22810 22811 1 0.10860 301825.392000
22810 22812 1 0.13986 296436.400000
22812 22813 1 0.10860 301825.392000
22812 22814 1 0.13986 296436.400000
22814 22815 1 0.10860 301825.392000
22814 22816 1 0.13986 296436.400000
22816 22817 1 0.10860 301825.392000
22818 22819 1 0.10860 301825.392000
22819 22820 1 0.13986 296436.400000
22819 22828 1 0.13986 296436.400000
22820 22821 1 0.18850 35430.112000
22820 22822 1 0.13986 296436.400000
22822 22823 1 0.10860 301825.392000
22822 22824 1 0.13986 296436.400000
22824 22825 1 0.10860 301825.392000
22824 22826 1 0.13986 296436.400000
22826 22827 1 0.10860 301825.392000
22826 22828 1 0.13986 296436.400000
22828 22829 1 0.10860 301825.392000
22830 22831 1 0.10860 301825.392000
22831 22832 1 0.13986 296436.400000
22831 22840 1 0.13986 296436.400000
22832 22833 1 0.18850 35430.112000
22832 22834 1 0.13986 296436.400000
22834 22835 1 0.10860 301825.392000
22834 22836 1 0.13986 296436.400000
22836 22837 1 0.10860 301825.392000
22836 22838 1 0.13986 296436.400000
22838 22839 1 0.10860 301825.392000
22838 22840 1 0.13986 296436.400000
22840 22841 1 0.10860 301825.392000
22842 22843 1 0.10860 301825.392000
22843 22844 1 0.13986 296436.400000
22843 22852 1 0.13986 296436.400000
22844 22845 1 0.18850 35430.112000
22844 22846 1 0.13986 296436.400000
22846 22847 1 0.10860 301825.392000
22846 22848 1 0.13986 296436.400000
22848 22849 1 0.10860 301825.392000
22848 22850 1 0.13986 296436.400000
22850 22851 1 0.10860 301825.392000
22850 22852 1 0.13986 296436.400000
22852 22853 1 0.10860 301825.392000
22854 22855 1 0.10860 301825.392000
22855 22856 1 0.13986 296436.400000
22855 22864 1 0.13986 296436.400000
22856 22857 1 0.18850 35430.112000
22856 22858 1 0.13986 296436.400000
22858 22859 1 0.10860 301825.392000
22858 22860 1 0.13986 296436.400000
22860 22861 1 0.10860 301825.392000
22860 22862 1 0.13986 296436.400000
22862 22863 1 0.10860 301825.392000
22862 22864 1 0.13986 296436.400000
22864 22865 1 0.10860 301825.392000
22866 22867 1 0.10860 301825.392000
22867 22868 1 0.13986 296436.400000
22867 22876 1 0.13986 296436.400000
22868 22869 1 0.18850 35430.112000
22868 22870 1 0.13986 296436.400000
22870 22871 1 0.10860 301825.392000
22870 22872 1 0.13986 296436.400000
22872 22873 1 0.10860 301825.392000
22872 22874 1 0.13986 296436.400000
22874 22875 1 0.10860 301825.392000
22874 22876 1 0.13986 296436.400000
22876 22877 1 0.10860 301825.392000
22878 22879 1 0.10860 301825.392000
22879 22880 1 0.13986 296436.400000
22879 22888 1 0.13986 296436.400000
22880 22881 1 0.18850 35430.112000
22880 22882 1 0.13986 296436.400000
22882 22883 1 0.10860 301825.392000
22882 22884 1 0.13986 296436.400000
22884 22885 1 0.10860 301825.392000
22884 22886 1 0.13986 296436.400000
22886 22887 1 0.10860 301825.392000
22886 22888 1 0.13986 296436.400000
22888 22889 1 0.10860 301825.392000
22890 22891 1 0.10860 301825.392000
22891 22892 1 0.13986 296436.400000
22891 22900 1 0.13986 296436.400000
22892 22893 1 0.18850 35430.112000
22892 22894 1 0.13986 296436.400000
22894 22895 1 0.10860 301825.392000
22894 22896 1 0.13986 296436.400000
22896 22897 1 0.10860 301825.392000
22896 22898 1 0.13986 296436.400000
22898 22899 1 0.10860 301825.392000
22898 22900 1 0.13986 296436.400000
22900 22901 1 0.10860 301825.392000
22902 22903 1 0.10860 301825.392000
22903 22904 1 0.13986 296436.400000
22903 22912 1 0.13986 296436.400000
22904 22905 1 0.18850 35430.112000
22904 22906 1 0.13986 296436.400000
22906 22907 1 0.10860 301825.392000
22906 22908 1 0.13986 296436.400000
22908 22909 1 0.10860 301825.392000
22908 22910 1 0.13986 296436.400000
22910 22911 1 0.10860 301825.392000
22910 22912 1 0.13986 296436.400000
22912 22913 1 0.10860 301825.392000
22914 22915 1 0.10860 301825.392000
22915 22916 1 0.13986 296436.400000
22915 22924 1 0.13986 296436.400000
22916 22917 1 0.18850 35430.112000
22916 22918 1 0.13986 296436.400000
22918 22919 1 0.10860 301825.392000
22918 22920 1 0.13986 296436.400000
22920 22921 1 0.10860 301825.392000
22920 22922 1 0.13986 296436.400000
22922 22923 1 0.10860 301825.392000
22922 22924 1 0.13986 296436.400000
22924 22925 1 0.10860 301825.392000
22926 22927 1 0.10860 301825.392000
22927 22928 1 0.13986 296436.400000
22927 22936 1 0.13986 296436.400000
22928 22929 1 0.18850 35430.112000
22928 22930 1 0.13986 296436.400000
22930 22931 1 0.10860 301825.392000
22930 22932 1 0.13986 296436.400000
22932 22933 1 0.10860 301825.392000
22932 22934 1 0.13986 296436.400000
22934 22935 1 0.10860 301825.392000
22934 22936 1 0.13986 296436.400000
22936 22937 1 0.10860 301825.392000
22938 22939 1 0.10860 301825.392000
22939 22940 1 0.13986 296436.400000
22939 22948 1 0.13986 296436.400000
22940 22941 1 0.18850 35430.112000
22940 22942 1 0.13986 296436.400000
22942 22943 1 0.10860 301825.392000
22942 22944 1 0.13986 296436.400000
22944 22945 1 0.10860 301825.392000
22944 22946 1 0.13986 296436.400000
22946 22947 1 0.10860 301825.392000
22946 22948 1 0.13986 296436.400000
22948 22949 1 0.10860 301825.392000
22950 22951 1 0.10860 301825.392000
22951 22952 1 0.13986 296436.400000
22951 22960 1 0.13986 296436.400000
22952 22953 1 0.18850 35430.112000
22952 22954 1 0.13986 296436.400000
22954 22955 1 0.10860 301825.392000
22954 22956 1 0.13986 296436.400000
22956 22957 1 0.10860 301825.392000
22956 22958 1 0.13986 296436.400000
22958 22959 1 0.10860 301825.392000
22958 22960 1 0.13986 296436.400000
22960 22961 1 0.10860 301825.392000
22962 22963 1 0.10860 301825.392000
22963 22964 1 0.13986 296436.400000
22963 22972 1 0.13986 296436.400000
22964 22965 1 0.18850 35430.112000
22964 22966 1 0.13986 296436.400000
22966 22967 1 0.10860 301825.392000
22966 22968 1 0.13986 296436.400000
22968 22969 1 0.10860 301825.392000
22968 22970 1 0.13986 296436.400000
22970 22971 1 0.10860 301825.392000
22970 22972 1 0.13986 296436.400000
22972 22973 1 0.10860 301825.392000
22974 22975 1 0.10860 301825.392000
22975 22976 1 0.13986 296436.400000
22975 22984 1 0.13986 296436.400000
22976 22977 1 0.18850 35430.112000
22976 22978 1 0.13986 296436.400000
22978 22979 1 0.10860 301825.392000
22978 22980 1 0.13986 296436.400000
22980 22981 1 0.10860 301825.392000
22980 22982 1 0.13986 296436.400000
22982 22983 1 0.10860 301825.392000
22982 22984 1 0.13986 296436.400000
22984 22985 1 0.10860 301825.392000
22986 22987 1 0.10860 301825.392000
22987 22988 1 0.13986 296436.400000
22987 22996 1 0.13986 296436.400000
22988 22989 1 0.18850 35430.112000
22988 22990 1 0.13986 296436.400000
22990 22991 1 0.10860 301825.392000
22990 22992 1 0.13986 296436.400000
22992 22993 1 0.10860 301825.392000
22992 22994 1 0.13986 296436.400000
22994 22995 1 0.10860 301825.392000
22994 22996 1 0.13986 296436.400000
22996 22997 1 0.10860 301825.392000
22998 22999 1 0.10860 301825.392000
22999 23000 1 0.13986 296436.400000
22999 23008 1 0.13986 296436.400000
23000 23001 1 0.18850 35430.112000
23000 23002 1 0.13986 296436.400000
23002 23003 1 0.10860 301825.392000
23002 23004 1 0.13986 296436.400000
23004 23005 1 0.10860 301825.392000
23004 23006 1 0.13986 296436.400000
23006 23007 1 0.10860 301825.392000
23006 23008 1 0.13986 296436.400000
23008 23009 1 0.10860 301825.392000
23010 23011 1 0.10860 301825.392000
23011 23012 1 0.13986 296436.400000
23011 23020 1 0.13986 296436.400000
23012 23013 1 0.18850 35430.112000
23012 23014 1 0.13986 296436.400000
23014 23015 1 0.10860 301825.392000
23014 23016 1 0.13986 296436.400000
23016 23017 1 0.10860 301825.392000
23016 23018 1 0.13986 296436.400000
23018 23019 1 0.10860 301825.392000
23018 23020 1 0.13986 296436.400000
23020 23021 1 0.10860 301825.392000
23022 23023 1 0.10860 301825.392000
23023 23024 1 0.13986 296436.400000
23023 23032 1 0.13986 296436.400000
23024 23025 1 0.18850 35430.112000
23024 23026 1 0.13986 296436.400000
23026 23027 1 0.10860 301825.392000
23026 23028 1 0.13986 296436.400000
23028 23029 1 0.10860 301825.392000
23028 23030 1 0.13986 296436.400000
23030 23031 1 0.10860 301825.392000
23030 23032 1 0.13986 296436.400000
23032 23033 1 0.10860 301825.392000
23034 23035 1 0.10860 301825.392000
23035 23036 1 0.13986 296436.400000
23035 23044 1 0.13986 296436.400000
23036 23037 1 0.18850 35430.112000
23036 23038 1 0.13986 296436.400000
23038 23039 1 0.10860 301825.392000
23038 23040 1 0.13986 296436.400000
23040 23041 1 0.10860 301825.392000
23040 23042 1 0.13986 296436.400000
23042 23043 1 0.10860 301825.392000
23042 23044 1 0.13986 296436.400000
23044 23045 1 0.10860 301825.392000
23046 23047 1 0.10860 301825.392000
23047 23048 1 0.13986 296436.400000
23047 23056 1 0.13986 296436.400000
23048 23049 1 0.18850 35430.112000
23048 23050 1 0.13986 296436.400000
23050 23051 1 0.10860 301825.392000
23050 23052 1 0.13986 296436.400000
23052 23053 1 0.10860 301825.392000
23052 23054 1 0.13986 296436.400000
23054 23055 1 0.10860 301825.392000
23054 23056 1 0.13986 296436.400000
23056 23057 1 0.10860 301825.392000
23058 23059 1 0.10860 301825.392000
23059 23060 1 0.13986 296436.400000
23059 23068 1 0.13986 296436.400000
23060 23061 1 0.18850 35430.112000
23060 23062 1 0.13986 296436.400000
23062 23063 1 0.10860 301825.392000
23062 23064 1 0.13986 296436.400000
23064 23065 1 0.10860 301825.392000
23064 23066 1 0.13986 296436.400000
23066 23067 1 0.10860 301825.392000
23066 23068 1 0.13986 296436.400000
23068 23069 1 0.10860 301825.392000
23070 23071 1 0.10860 301825.392000
23071 23072 1 0.13986 296436.400000
23071 23080 1 0.13986 296436.400000
23072 23073 1 0.18850 35430.112000
23072 23074 1 0.13986 296436.400000
23074 23075 1 0.10860 301825.392000
23074 23076 1 0.13986 296436.400000
23076 23077 1 0.10860 301825.392000
23076 23078 1 0.13986 296436.400000
23078 23079 1 0.10860 301825.392000
23078 23080 1 0.13986 296436.400000
23080 23081 1 0.10860 301825.392000
23082 23083 1 0.10860 301825.392000
23083 23084 1 0.13986 296436.400000
23083 23092 1 0.13986 296436.400000
23084 23085 1 0.18850 35430.112000
23084 23086 1 0.13986 296436.400000
23086 23087 1 0.10860 301825.392000
23086 23088 1 0.13986 296436.400000
23088 23089 1 0.10860 301825.392000
23088 23090 1 0.13986 296436.400000
23090 23091 1 0.10860 301825.392000
23090 23092 1 0.13986 296436.400000
23092 23093 1 0.10860 301825.392000
23094 23095 1 0.10860 301825.392000
23095 23096 1 0.13986 296436.400000
23095 23104 1 0.13986 296436.400000
23096 23097 1 0.18850 35430.112000
23096 23098 1 0.13986 296436.400000
23098 23099 1 0.10860 301825.392000
23098 23100 1 0.13986 296436.400000
23100 23101 1 0.10860 301825.392000
23100 23102 1 0.13986 296436.400000
23102 23103 1 0.10860 301825.392000
23102 23104 1 0.13986 296436.400000
23104 23105 1 0.10860 301825.392000
23106 23107 1 0.10860 301825.392000
23107 23108 1 0.13986 296436.400000
23107 23116 1 0.13986 296436.400000
23108 23109 1 0.18850 35430.112000
23108 23110 1 0.13986 296436.400000
23110 23111 1 0.10860 301825.392000
23110 23112 1 0.13986 296436.400000
23112 23113 1 0.10860 301825.392000
23112 23114 1 0.13986 296436.400000
23114 23115 1 0.10860 301825.392000
23114 23116 1 0.13986 296436.400000
23116 23117 1 0.10860 301825.392000
23118 23119 1 0.10860 301825.392000
23119 23120 1 0.13986 296436.400000
23119 23128 1 0.13986 296436.400000
23120 23121 1 0.18850 35430.112000
23120 23122 1 0.13986 296436.400000
23122 23123 1 0.10860 301825.392000
23122 23124 1 0.13986 296436.400000
23124 23125 1 0.10860 301825.392000
23124 23126 1 0.13986 296436.400000
23126 23127 1 0.10860 301825.392000
23126 23128 1 0.13986 296436.400000
23128 23129 1 0.10860 301825.392000
23130 23131 1 0.10860 301825.392000
23131 23132 1 0.13986 296436.400000
23131 23140 1 0.13986 296436.400000
23132 23133 1 0.18850 35430.112000
23132 23134 1 0.13986 296436.400000
23134 23135 1 0.10860 301825.392000
23134 23136 1 0.13986 296436.400000
23136 23137 1 0.10860 301825.392000
23136 23138 1 0.13986 296436.400000
23138 23139 1 0.10860 301825.392000
23138 23140 1 0.13986 296436.400000
23140 23141 1 0.10860 301825.392000
23142 23143 1 0.10860 301825.392000
23143 23144 1 0.13986 296436.400000
23143 23152 1 0.13986 296436.400000
23144 23145 1 0.18850 35430.112000
23144 23146 1 0.13986 296436.400000
23146 23147 1 0.10860 301825.392000
23146 23148 1 0.13986 296436.400000
23148 23149 1 0.10860 301825.392000
23148 23150 1 0.13986 296436.400000
23150 23151 1 0.10860 301825.392000
23150 23152 1 0.13986 296436.400000
23152 23153 1 0.10860 301825.392000
23154 23155 1 0.10860 301825.392000
23155 23156 1 0.13986 296436.400000
23155 23164 1 0.13986 296436.400000
23156 23157 1 0.18850 35430.112000
23156 23158 1 0.13986 296436.400000
23158 23159 1 0.10860 301825.392000
23158 23160 1 0.13986 296436.400000
23160 23161 1 0.10860 301825.392000
23160 23162 1 0.13986 296436.400000
23162 23163 1 0.10860 301825.392000
23162 23164 1 0.13986 296436.400000
23164 23165 1 0.10860 301825.392000
23166 23167 1 0.10860 301825.392000
23167 23168 1 0.13986 296436.400000
23167 23176 1 0.13986 296436.400000
23168 23169 1 0.18850 35430.112000
23168 23170 1 0.13986 296436.400000
23170 23171 1 0.10860 301825.392000
23170 23172 1 0.13986 296436.400000
23172 23173 1 0.10860 301825.392000
23172 23174 1 0.13986 296436.400000
23174 23175 1 0.10860 301825.392000
23174 23176 1 0.13986 296436.400000
23176 23177 1 0.10860 301825.392000
23178 23179 1 0.10860 301825.392000
23179 23180 1 0.13986 296436.400000
23179 23188 1 0.13986 296436.400000
23180 23181 1 0.18850 35430.112000
23180 23182 1 0.13986 296436.400000
23182 23183 1 0.10860 301825.392000
23182 23184 1 0.13986 296436.400000
23184 23185 1 0.10860 301825.392000
23184 23186 1 0.13986 296436.400000
23186 23187 1 0.10860 301825.392000
23186 23188 1 0.13986 296436.400000
23188 23189 1 0.10860 301825.392000
23190 23191 1 0.10860 301825.392000
23191 23192 1 0.13986 296436.400000
23191 23200 1 0.13986 296436.400000
23192 23193 1 0.18850 35430.112000
23192 23194 1 0.13986 296436.400000
23194 23195 1 0.10860 301825.392000
23194 23196 1 0.13986 296436.400000
23196 23197 1 0.10860 301825.392000
23196 23198 1 0.13986 296436.400000
23198 23199 1 0.10860 301825.392000
23198 23200 1 0.13986 296436.400000
23200 23201 1 0.10860 301825.392000
23202 23203 1 0.10860 301825.392000
23203 23204 1 0.13986 296436.400000
23203 23212 1 0.13986 296436.400000
23204 23205 1 0.18850 35430.112000
23204 23206 1 0.13986 296436.400000
23206 23207 1 0.10860 301825.392000
23206 23208 1 0.13986 296436.400000
23208 23209 1 0.10860 301825.392000
23208 23210 1 0.13986 296436.400000
23210 23211 1 0.10860 301825.392000
23210 23212 1 0.13986 296436.400000
23212 23213 1 0.10860 301825.392000
23214 23215 1 0.10860 301825.392000
23215 23216 1 0.13986 296436.400000
23215 23224 1 0.13986 296436.400000
23216 23217 1 0.18850 35430.112000
23216 23218 1 0.13986 296436.400000
23218 23219 1 0.10860 301825.392000
23218 23220 1 0.13986 296436.400000
23220 23221 1 0.10860 301825.392000
23220 23222 1 0.13986 296436.400000
23222 23223 1 0.10860 301825.392000
23222 23224 1 0.13986 296436.400000
23224 23225 1 0.10860 301825.392000
23226 23227 1 0.10860 301825.392000
23227 23228 1 0.13986 296436.400000
23227 23236 1 0.13986 296436.400000
23228 23229 1 0.18850 35430.112000
23228 23230 1 0.13986 296436.400000
23230 23231 1 0.10860 301825.392000
23230 23232 1 0.13986 296436.400000
23232 23233 1 0.10860 301825.392000
23232 23234 1 0.13986 296436.400000
23234 23235 1 0.10860 301825.392000
23234 23236 1 0.13986 296436.400000
23236 23237 1 0.10860 301825.392000
23238 23239 1 0.10860 301825.392000
23239 23240 1 0.13986 296436.400000
23239 23248 1 0.13986 296436.400000
23240 23241 1 0.18850 35430.112000
23240 23242 1 0.13986 296436.400000
23242 23243 1 0.10860 301825.392000
23242 23244 1 0.13986 296436.400000
23244 23245 1 0.10860 301825.392000
23244 23246 1 0.13986 296436.400000
23246 23247 1 0.10860 301825.392000
23246 23248 1 0.13986 296436.400000
23248 23249 1 0.10860 301825.392000
23250 23251 1 0.10860 301825.392000
23251 23252 1 0.13986 296436.400000
23251 23260 1 0.13986 296436.400000
23252 23253 1 0.18850 35430.112000
23252 23254 1 0.13986 296436.400000
23254 23255 1 0.10860 301825.392000
23254 23256 1 0.13986 296436.400000
23256 23257 1 0.10860 301825.392000
23256 23258 1 0.13986 296436.400000
23258 23259 1 0.10860 301825.392000
23258 23260 1 0.13986 296436.400000
23260 23261 1 0.10860 301825.392000
23262 23263 1 0.10860 301825.392000
23263 23264 1 0.13986 296436.400000
23263 23272 1 0.13986 296436.400000
23264 23265 1 0.18850 35430.112000
23264 23266 1 0.13986 296436.400000
23266 23267 1 0.10860 301825.392000
23266 23268 1 0.13986 296436.400000
23268 23269 1 0.10860 301825.392000
23268 23270 1 0.13986 296436.400000
23270 23271 1 0.10860 301825.392000
23270 23272 1 0.13986 296436.400000
23272 23273 1 0.10860 301825.392000
23274 23275 1 0.10860 301825.392000
23275 23276 1 0.13986 296436.400000
23275 23284 1 0.13986 296436.400000
23276 23277 1 0.18850 35430.112000
23276 23278 1 0.13986 296436.400000
23278 23279 1 0.10860 301825.392000
23278 23280 1 0.13986 296436.400000
23280 23281 1 0.10860 301825.392000
23280 23282 1 0.13986 296436.400000
23282 23283 1 0.10860 301825.392000
23282 23284 1 0.13986 296436.400000
23284 23285 1 0.10860 301825.392000
23286 23287 1 0.10860 301825.392000
23287 23288 1 0.13986 296436.400000
23287 23296 1 0.13986 296436.400000
23288 23289 1 0.18850 35430.112000
23288 23290 1 0.13986 296436.400000
23290 23291 1 0.10860 301825.392000
23290 23292 1 0.13986 296436.400000
23292 23293 1 0.10860 301825.392000
23292 23294 1 0.13986 296436.400000
23294 23295 1 0.10860 301825.392000
23294 23296 1 0.13986 296436.400000
23296 23297 1 0.10860 301825.392000
23298 23299 1 0.10860 301825.392000
23299 23300 1 0.13986 296436.400000
23299 23308 1 0.13986 296436.400000
23300 23301 1 0.18850 35430.112000
23300 23302 1 0.13986 296436.400000
23302 23303 1 0.10860 301825.392000
23302 23304 1 0.13986 296436.400000
23304 23305 1 0.10860 301825.392000
23304 23306 1 0.13986 296436.400000
23306 23307 1 0.10860 301825.392000
23306 23308 1 0.13986 296436.400000
23308 23309 1 0.10860 301825.392000
23310 23311 1 0.10860 301825.392000
23311 23312 1 0.13986 296436.400000
23311 23320 1 0.13986 296436.400000
23312 23313 1 0.18850 35430.112000
23312 23314 1 0.13986 296436.400000
23314 23315 1 0.10860 301825.392000
23314 23316 1 0.13986 296436.400000
23316 23317 1 0.10860 301825.392000
23316 23318 1 0.13986 296436.400000
23318 23319 1 0.10860 301825.392000
23318 23320 1 0.13986 296436.400000
23320 23321 1 0.10860 301825.392000
23322 23323 1 0.10860 301825.392000
23323 23324 1 0.13986 296436.400000
23323 23332 1 0.13986 296436.400000
23324 23325 1 0.18850 35430.112000
23324 23326 1 0.13986 296436.400000
23326 23327 1 0.10860 301825.392000
23326 23328 1 0.13986 296436.400000
23328 23329 1 0.10860 301825.392000
23328 23330 1 0.13986 296436.400000
23330 23331 1 0.10860 301825.392000
23330 23332 1 0.13986 296436.400000
23332 23333 1 0.10860 301825.392000
23334 23335 1 0.10860 301825.392000
23335 23336 1 0.13986 296436.400000
23335 23344 1 0.13986 296436.400000
23336 23337 1 0.18850 35430.112000
23336 23338 1 0.13986 296436.400000
23338 23339 1 0.10860 301825.392000
23338 23340 1 0.13986 296436.400000
23340 23341 1 0.10860 301825.392000
23340 23342 1 0.13986 296436.400000
23342 23343 1 0.10860 301825.392000
23342 23344 1 0.13986 296436.400000
23344 23345 1 0.10860 301825.392000
23346 23347 1 0.10860 301825.392000
23347 23348 1 0.13986 296436.400000
23347 23356 1 0.13986 296436.400000
23348 23349 1 0.18850 35430.112000
23348 23350 1 0.13986 296436.400000
23350 23351 1 0.10860 301825.392000
23350 23352 1 0.13986 296436.400000
23352 23353 1 0.10860 301825.392000
23352 23354 1 0.13986 296436.400000
23354 23355 1 0.10860 301825.392000
23354 23356 1 0.13986 296436.400000
23356 23357 1 0.10860 301825.392000
23358 23359 1 0.10860 301825.392000
23359 23360 1 0.13986 296436.400000
23359 23368 1 0.13986 296436.400000
23360 23361 1 0.18850 35430.112000
23360 23362 1 0.13986 296436.400000
23362 23363 1 0.10860 301825.392000
23362 23364 1 0.13986 296436.400000
23364 23365 1 0.10860 301825.392000
23364 23366 1 0.13986 296436.400000
23366 23367 1 0.10860 301825.392000
23366 23368 1 0.13986 296436.400000
23368 23369 1 0.10860 301825.392000
23370 23371 1 0.10860 301825.392000
23371 23372 1 0.13986 296436.400000
23371 23380 1 0.13986 296436.400000
23372 23373 1 0.18850 35430.112000
23372 23374 1 0.13986 296436.400000
23374 23375 1 0.10860 301825.392000
23374 23376 1 0.13986 296436.400000
23376 23377 1 0.10860 301825.392000
23376 23378 1 0.13986 296436.400000
23378 23379 1 0.10860 301825.392000
23378 23380 1 0.13986 296436.400000
23380 23381 1 0.10860 301825.392000
23382 23383 1 0.10860 301825.392000
23383 23384 1 0.13986 296436.400000
23383 23392 1 0.13986 296436.400000
23384 23385 1 0.18850 35430.112000
23384 23386 1 0.13986 296436.400000
23386 23387 1 0.10860 301825.392000
23386 23388 1 0.13986 296436.400000
23388 23389 1 0.10860 301825.392000
23388 23390 1 0.13986 296436.400000
23390 23391 1 0.10860 301825.392000
23390 23392 1 0.13986 296436.400000
23392 23393 1 0.10860 301825.392000
23394 23395 1 0.10860 301825.392000
23395 23396 1 0.13986 296436.400000
23395 23404 1 0.13986 296436.400000
23396 23397 1 0.18850 35430.112000
23396 23398 1 0.13986 296436.400000
23398 23399 1 0.10860 301825.392000
23398 23400 1 0.13986 296436.400000
23400 23401 1 0.10860 301825.392000
23400 23402 1 0.13986 296436.400000
23402 23403 1 0.10860 301825.392000
23402 23404 1 0.13986 296436.400000
23404 23405 1 0.10860 301825.392000
23406 23407 1 0.10860 301825.392000
23407 23408 1 0.13986 296436.400000
23407 23416 1 0.13986 296436.400000
23408 23409 1 0.18850 35430.112000
23408 23410 1 0.13986 296436.400000
23410 23411 1 0.10860 301825.392000
23410 23412 1 0.13986 296436.400000
23412 23413 1 0.10860 301825.392000
23412 23414 1 0.13986 296436.400000
23414 23415 1 0.10860 301825.392000
23414 23416 1 0.13986 296436.400000
23416 23417 1 0.10860 301825.392000
23418 23419 1 0.10860 301825.392000
23419 23420 1 0.13986 296436.400000
23419 23428 1 0.13986 296436.400000
23420 23421 1 0.18850 35430.112000
23420 23422 1 0.13986 296436.400000
23422 23423 1 0.10860 301825.392000
23422 23424 1 0.13986 296436.400000
23424 23425 1 0.10860 301825.392000
23424 23426 1 0.13986 296436.400000
23426 23427 1 0.10860 301825.392000
23426 23428 1 0.13986 296436.400000
23428 23429 1 0.10860 301825.392000
23430 23431 1 0.10860 301825.392000
23431 23432 1 0.13986 296436.400000
23431 23440 1 0.13986 296436.400000
23432 23433 1 0.18850 35430.112000
23432 23434 1 0.13986 296436.400000
23434 23435 1 0.10860 301825.392000
23434 23436 1 0.13986 296436.400000
23436 23437 1 0.10860 301825.392000
23436 23438 1 0.13986 296436.400000
23438 23439 1 0.10860 301825.392000
23438 23440 1 0.13986 296436.400000
23440 23441 1 0.10860 301825.392000
23442 23443 1 0.10860 301825.392000
23443 23444 1 0.13986 296436.400000
23443 23452 1 0.13986 296436.400000
23444 23445 1 0.18850 35430.112000
23444 23446 1 0.13986 296436.400000
23446 23447 1 0.10860 301825.392000
23446 23448 1 0.13986 296436.400000
23448 23449 1 0.10860 301825.392000
23448 23450 1 0.13986 296436.400000
23450 23451 1 0.10860 301825.392000
23450 23452 1 0.13986 296436.400000
23452 23453 1 0.10860 301825.392000
23454 23455 1 0.10860 301825.392000
23455 23456 1 0.13986 296436.400000
23455 23464 1 0.13986 296436.400000
23456 23457 1 0.18850 35430.112000
23456 23458 1 0.13986 296436.400000
23458 23459 1 0.10860 301825.392000
23458 23460 1 0.13986 296436.400000
23460 23461 1 0.10860 301825.392000
23460 23462 1 0.13986 296436.400000
23462 23463 1 0.10860 301825.392000
23462 23464 1 0.13986 296436.400000
23464 23465 1 0.10860 301825.392000
23466 23467 1 0.10860 301825.392000
23467 23468 1 0.13986 296436.400000
23467 23476 1 0.13986 296436.400000
23468 23469 1 0.18850 35430.112000
23468 23470 1 0.13986 296436.400000
23470 23471 1 0.10860 301825.392000
23470 23472 1 0.13986 296436.400000
23472 23473 1 0.10860 301825.392000
23472 23474 1 0.13986 296436.400000
23474 23475 1 0.10860 301825.392000
23474 23476 1 0.13986 296436.400000
23476 23477 1 0.10860 301825.392000
23478 23479 1 0.10860 301825.392000
23479 23480 1 0.13986 296436.400000
23479 23488 1 0.13986 296436.400000
23480 23481 1 0.18850 35430.112000
23480 23482 1 0.13986 296436.400000
23482 23483 1 0.10860 301825.392000
23482 23484 1 0.13986 296436.400000
23484 23485 1 0.10860 301825.392000
23484 23486 1 0.13986 296436.400000
23486 23487 1 0.10860 301825.392000
23486 23488 1 0.13986 296436.400000
23488 23489 1 0.10860 301825.392000
23490 23491 1 0.10860 301825.392000
23491 23492 1 0.13986 296436.400000
23491 23500 1 0.13986 296436.400000
23492 23493 1 0.18850 35430.112000
23492 23494 1 0.13986 296436.400000
23494 23495 1 0.10860 301825.392000
23494 23496 1 0.13986 296436.400000
23496 23497 1 0.10860 301825.392000
23496 23498 1 0.13986 296436.400000
23498 23499 1 0.10860 301825.392000
23498 23500 1 0.13986 296436.400000
23500 23501 1 0.10860 301825.392000
23502 23503 1 0.10860 301825.392000
23503 23504 1 0.13986 296436.400000
23503 23512 1 0.13986 296436.400000
23504 23505 1 0.18850 35430.112000
23504 23506 1 0.13986 296436.400000
23506 23507 1 0.10860 301825.392000
23506 23508 1 0.13986 296436.400000
23508 23509 1 0.10860 301825.392000
23508 23510 1 0.13986 296436.400000
23510 23511 1 0.10860 301825.392000
23510 23512 1 0.13986 296436.400000
23512 23513 1 0.10860 301825.392000
23514 23515 1 0.10860 301825.392000
23515 23516 1 0.13986 296436.400000
23515 23524 1 0.13986 296436.400000
23516 23517 1 0.18850 35430.112000
23516 23518 1 0.13986 296436.400000
23518 23519 1 0.10860 301825.392000
23518 23520 1 0.13986 296436.400000
23520 23521 1 0.10860 301825.392000
23520 23522 1 0.13986 296436.400000
23522 23523 1 0.10860 301825.392000
23522 23524 1 0.13986 296436.400000
23524 23525 1 0.10860 301825.392000
23526 23527 1 0.10860 301825.392000
23527 23528 1 0.13986 296436.400000
23527 23536 1 0.13986 296436.400000
23528 23529 1 0.18850 35430.112000
23528 23530 1 0.13986 296436.400000
23530 23531 1 0.10860 301825.392000
23530 23532 1 0.13986 296436.400000
23532 23533 1 0.10860 301825.392000
23532 23534 1 0.13986 296436.400000
23534 23535 1 0.10860 301825.392000
23534 23536 1 0.13986 296436.400000
23536 23537 1 0.10860 301825.392000
23538 23539 1 0.10860 301825.392000
23539 23540 1 0.13986 296436.400000
23539 23548 1 0.13986 296436.400000
23540 23541 1 0.18850 35430.112000
23540 23542 1 0.13986 296436.400000
23542 23543 1 0.10860 301825.392000
23542 23544 1 0.13986 296436.400000
23544 23545 1 0.10860 301825.392000
23544 23546 1 0.13986 296436.400000
23546 23547 1 0.10860 301825.392000
23546 23548 1 0.13986 296436.400000
23548 23549 1 0.10860 301825.392000
23550 23551 1 0.10860 301825.392000
23551 23552 1 0.13986 296436.400000
23551 23560 1 0.13986 296436.400000
23552 23553 1 0.18850 35430.112000
23552 23554 1 0.13986 296436.400000
23554 23555 1 0.10860 301825.392000
23554 23556 1 0.13986 296436.400000
23556 23557 1 0.10860 301825.392000
23556 23558 1 0.13986 296436.400000
23558 23559 1 0.10860 301825.392000
23558 23560 1 0.13986 296436.400000
23560 23561 1 0.10860 301825.392000
23562 23563 1 0.10860 301825.392000
23563 23564 1 0.13986 296436.400000
23563 23572 1 0.13986 296436.400000
23564 23565 1 0.18850 35430.112000
23564 23566 1 0.13986 296436.400000
23566 23567 1 0.10860 301825.392000
23566 23568 1 0.13986 296436.400000
23568 23569 1 0.10860 301825.392000
23568 23570 1 0.13986 296436.400000
23570 23571 1 0.10860 301825.392000
23570 23572 1 0.13986 296436.400000
23572 23573 1 0.10860 301825.392000
23574 23575 1 0.10860 301825.392000
23575 23576 1 0.13986 296436.400000
23575 23584 1 0.13986 296436.400000
23576 23577 1 0.18850 35430.112000
23576 23578 1 0.13986 296436.400000
23578 23579 1 0.10860 301825.392000
23578 23580 1 0.13986 296436.400000
23580 23581 1 0.10860 301825.392000
23580 23582 1 0.13986 296436.400000
23582 23583 1 0.10860 301825.392000
23582 23584 1 0.13986 296436.400000
23584 23585 1 0.10860 301825.392000
23586 23587 1 0.10860 301825.392000
23587 23588 1 0.13986 296436.400000
23587 23596 1 0.13986 296436.400000
23588 23589 1 0.18850 35430.112000
23588 23590 1 0.13986 296436.400000
23590 23591 1 0.10860 301825.392000
23590 23592 1 0.13986 296436.400000
23592 23593 1 0.10860 301825.392000
23592 23594 1 0.13986 296436.400000
23594 23595 1 0.10860 301825.392000
23594 23596 1 0.13986 296436.400000
23596 23597 1 0.10860 301825.392000
23598 23599 1 0.10860 301825.392000
23599 23600 1 0.13986 296436.400000
23599 23608 1 0.13986 296436.400000
23600 23601 1 0.18850 35430.112000
23600 23602 1 0.13986 296436.400000
23602 23603 1 0.10860 301825.392000
23602 23604 1 0.13986 296436.400000
23604 23605 1 0.10860 301825.392000
23604 23606 1 0.13986 296436.400000
23606 23607 1 0.10860 301825.392000
23606 23608 1 0.13986 296436.400000
23608 23609 1 0.10860 301825.392000
23610 23611 1 0.10860 301825.392000
23611 23612 1 0.13986 296436.400000
23611 23620 1 0.13986 296436.400000
23612 23613 1 0.18850 35430.112000
23612 23614 1 0.13986 296436.400000
23614 23615 1 0.10860 301825.392000
23614 23616 1 0.13986 296436.400000
23616 23617 1 0.10860 301825.392000
23616 23618 1 0.13986 296436.400000
23618 23619 1 0.10860 301825.392000
23618 23620 1 0.13986 296436.400000
23620 23621 1 0.10860 301825.392000
23622 23623 1 0.10860 301825.392000
23623 23624 1 0.13986 296436.400000
23623 23632 1 0.13986 296436.400000
23624 23625 1 0.18850 35430.112000
23624 23626 1 0.13986 296436.400000
23626 23627 1 0.10860 301825.392000
23626 23628 1 0.13986 296436.400000
23628 23629 1 0.10860 301825.392000
23628 23630 1 0.13986 296436.400000
23630 23631 1 0.10860 301825.392000
23630 23632 1 0.13986 296436.400000
23632 23633 1 0.10860 301825.392000
23634 23635 1 0.10860 301825.392000
23635 23636 1 0.13986 296436.400000
23635 23644 1 0.13986 296436.400000
23636 23637 1 0.18850 35430.112000
23636 23638 1 0.13986 296436.400000
23638 23639 1 0.10860 301825.392000
23638 23640 1 0.13986 296436.400000
23640 23641 1 0.10860 301825.392000
23640 23642 1 0.13986 296436.400000
23642 23643 1 0.10860 301825.392000
23642 23644 1 0.13986 296436.400000
23644 23645 1 0.10860 301825.392000
23646 23647 1 0.10860 301825.392000
23647 23648 1 0.13986 296436.400000
23647 23656 1 0.13986 296436.400000
23648 23649 1 0.18850 35430.112000
23648 23650 1 0.13986 296436.400000
23650 23651 1 0.10860 301825.392000
23650 23652 1 0.13986 296436.400000
23652 23653 1 0.10860 301825.392000
23652 23654 1 0.13986 296436.400000
23654 23655 1 0.10860 301825.392000
23654 23656 1 0.13986 296436.400000
23656 23657 1 0.10860 301825.392000
23658 23659 1 0.10860 301825.392000
23659 23660 1 0.13986 296436.400000
23659 23668 1 0.13986 296436.400000
23660 23661 1 0.18850 35430.112000
23660 23662 1 0.13986 296436.400000
23662 23663 1 0.10860 301825.392000
23662 23664 1 0.13986 296436.400000
23664 23665 1 0.10860 301825.392000
23664 23666 1 0.13986 296436.400000
23666 23667 1 0.10860 301825.392000
23666 23668 1 0.13986 296436.400000
23668 23669 1 0.10860 301825.392000
23670 23671 1 0.10860 301825.392000
23671 23672 1 0.13986 296436.400000
23671 23680 1 0.13986 296436.400000
23672 23673 1 0.18850 35430.112000
23672 23674 1 0.13986 296436.400000
23674 23675 1 0.10860 301825.392000
23674 23676 1 0.13986 296436.400000
23676 23677 1 0.10860 301825.392000
23676 23678 1 0.13986 296436.400000
23678 23679 1 0.10860 301825.392000
23678 23680 1 0.13986 296436.400000
23680 23681 1 0.10860 301825.392000
23682 23683 1 0.10860 301825.392000
23683 23684 1 0.13986 296436.400000
23683 23692 1 0.13986 296436.400000
23684 23685 1 0.18850 35430.112000
23684 23686 1 0.13986 296436.400000
23686 23687 1 0.10860 301825.392000
23686 23688 1 0.13986 296436.400000
23688 23689 1 0.10860 301825.392000
23688 23690 1 0.13986 296436.400000
23690 23691 1 0.10860 301825.392000
23690 23692 1 0.13986 296436.400000
23692 23693 1 0.10860 301825.392000
23694 23695 1 0.10860 301825.392000
23695 23696 1 0.13986 296436.400000
23695 23704 1 0.13986 296436.400000
23696 23697 1 0.18850 35430.112000
23696 23698 1 0.13986 296436.400000
23698 23699 1 0.10860 301825.392000
23698 23700 1 0.13986 296436.400000
23700 23701 1 0.10860 301825.392000
23700 23702 1 0.13986 296436.400000
23702 23703 1 0.10860 301825.392000
23702 23704 1 0.13986 296436.400000
23704 23705 1 0.10860 301825.392000
23706 23707 1 0.10860 301825.392000
23707 23708 1 0.13986 296436.400000
23707 23716 1 0.13986 296436.400000
23708 23709 1 0.18850 35430.112000
23708 23710 1 0.13986 296436.400000
23710 23711 1 0.10860 301825.392000
23710 23712 1 0.13986 296436.400000
23712 23713 1 0.10860 301825.392000
23712 23714 1 0.13986 296436.400000
23714 23715 1 0.10860 301825.392000
23714 23716 1 0.13986 296436.400000
23716 23717 1 0.10860 301825.392000
23718 23719 1 0.10860 301825.392000
23719 23720 1 0.13986 296436.400000
23719 23728 1 0.13986 296436.400000
23720 23721 1 0.18850 35430.112000
23720 23722 1 0.13986 296436.400000
23722 23723 1 0.10860 301825.392000
23722 23724 1 0.13986 296436.400000
23724 23725 1 0.10860 301825.392000
23724 23726 1 0.13986 296436.400000
23726 23727 1 0.10860 301825.392000
23726 23728 1 0.13986 296436.400000
23728 23729 1 0.10860 301825.392000
23730 23731 1 0.10860 301825.392000
23731 23732 1 0.13986 296436.400000
23731 23740 1 0.13986 296436.400000
23732 23733 1 0.18850 35430.112000
23732 23734 1 0.13986 296436.400000
23734 23735 1 0.10860 301825.392000
23734 23736 1 0.13986 296436.400000
23736 23737 1 0.10860 301825.392000
23736 23738 1 0.13986 296436.400000
23738 23739 1 0.10860 301825.392000
23738 23740 1 0.13986 296436.400000
23740 23741 1 0.10860 301825.392000
23742 23743 1 0.10860 301825.392000
23743 23744 1 0.13986 296436.400000
23743 23752 1 0.13986 296436.400000
23744 23745 1 0.18850 35430.112000
23744 23746 1 0.13986 296436.400000
23746 23747 1 0.10860 301825.392000
23746 23748 1 0.13986 296436.400000
23748 23749 1 0.10860 301825.392000
23748 23750 1 0.13986 296436.400000
23750 23751 1 0.10860 301825.392000
23750 23752 1 0.13986 296436.400000
23752 23753 1 0.10860 301825.392000
23754 23755 1 0.10860 301825.392000
23755 23756 1 0.13986 296436.400000
23755 23764 1 0.13986 296436.400000
23756 23757 1 0.18850 35430.112000
23756 23758 1 0.13986 296436.400000
23758 23759 1 0.10860 301825.392000
23758 23760 1 0.13986 296436.400000
23760 23761 1 0.10860 301825.392000
23760 23762 1 0.13986 296436.400000
23762 23763 1 0.10860 301825.392000
23762 23764 1 0.13986 296436.400000
23764 23765 1 0.10860 301825.392000
23766 23767 1 0.10860 301825.392000
23767 23768 1 0.13986 296436.400000
23767 23776 1 0.13986 296436.400000
23768 23769 1 0.18850 35430.112000
23768 23770 1 0.13986 296436.400000
23770 23771 1 0.10860 301825.392000
23770 23772 1 0.13986 296436.400000
23772 23773 1 0.10860 301825.392000
23772 23774 1 0.13986 296436.400000
23774 23775 1 0.10860 301825.392000
23774 23776 1 0.13986 296436.400000
23776 23777 1 0.10860 301825.392000
23778 23779 1 0.10860 301825.392000
23779 23780 1 0.13986 296436.400000
23779 23788 1 0.13986 296436.400000
23780 23781 1 0.18850 35430.112000
23780 23782 1 0.13986 296436.400000
23782 23783 1 0.10860 301825.392000
23782 23784 1 0.13986 296436.400000
23784 23785 1 0.10860 301825.392000
23784 23786 1 0.13986 296436.400000
23786 23787 1 0.10860 301825.392000
23786 23788 1 0.13986 296436.400000
23788 23789 1 0.10860 301825.392000
23790 23791 1 0.10860 301825.392000
23791 23792 1 0.13986 296436.400000
23791 23800 1 0.13986 296436.400000
23792 23793 1 0.18850 35430.112000
23792 23794 1 0.13986 296436.400000
23794 23795 1 0.10860 301825.392000
23794 23796 1 0.13986 296436.400000
23796 23797 1 0.10860 301825.392000
23796 23798 1 0.13986 296436.400000
23798 23799 1 0.10860 301825.392000
23798 23800 1 0.13986 296436.400000
23800 23801 1 0.10860 301825.392000
23802 23803 1 0.10860 301825.392000
23803 23804 1 0.13986 296436.400000
23803 23812 1 0.13986 296436.400000
23804 23805 1 0.18850 35430.112000
23804 23806 1 0.13986 296436.400000
23806 23807 1 0.10860 301825.392000
23806 23808 1 0.13986 296436.400000
23808 23809 1 0.10860 301825.392000
23808 23810 1 0.13986 296436.400000
23810 23811 1 0.10860 301825.392000
23810 23812 1 0.13986 296436.400000
23812 23813 1 0.10860 301825.392000
23814 23815 1 0.10860 301825.392000
23815 23816 1 0.13986 296436.400000
23815 23824 1 0.13986 296436.400000
23816 23817 1 0.18850 35430.112000
23816 23818 1 0.13986 296436.400000
23818 23819 1 0.10860 301825.392000
23818 23820 1 0.13986 296436.400000
23820 23821 1 0.10860 301825.392000
23820 23822 1 0.13986 296436.400000
23822 23823 1 0.10860 301825.392000
23822 23824 1 0.13986 296436.400000
23824 23825 1 0.10860 301825.392000
23826 23827 1 0.10860 301825.392000
23827 23828 1 0.13986 296436.400000
23827 23836 1 0.13986 296436.400000
23828 23829 1 0.18850 35430.112000
23828 23830 1 0.13986 296436.400000
23830 23831 1 0.10860 301825.392000
23830 23832 1 0.13986 296436.400000
23832 23833 1 0.10860 301825.392000
23832 23834 1 0.13986 296436.400000
23834 23835 1 0.10860 301825.392000
23834 23836 1 0.13986 296436.400000
23836 23837 1 0.10860 301825.392000
23838 23839 1 0.10860 301825.392000
23839 23840 1 0.13986 296436.400000
23839 23848 1 0.13986 296436.400000
23840 23841 1 0.18850 35430.112000
23840 23842 1 0.13986 296436.400000
23842 23843 1 0.10860 301825.392000
23842 23844 1 0.13986 296436.400000
23844 23845 1 0.10860 301825.392000
23844 23846 1 0.13986 296436.400000
23846 23847 1 0.10860 301825.392000
23846 23848 1 0.13986 296436.400000
23848 23849 1 0.10860 301825.392000
23850 23851 1 0.10860 301825.392000
23851 23852 1 0.13986 296436.400000
23851 23860 1 0.13986 296436.400000
23852 23853 1 0.18850 35430.112000
23852 23854 1 0.13986 296436.400000
23854 23855 1 0.10860 301825.392000
23854 23856 1 0.13986 296436.400000
23856 23857 1 0.10860 301825.392000
23856 23858 1 0.13986 296436.400000
23858 23859 1 0.10860 301825.392000
23858 23860 1 0.13986 296436.400000
23860 23861 1 0.10860 301825.392000
23862 23863 1 0.10860 301825.392000
23863 23864 1 0.13986 296436.400000
23863 23872 1 0.13986 296436.400000
23864 23865 1 0.18850 35430.112000
23864 23866 1 0.13986 296436.400000
23866 23867 1 0.10860 301825.392000
23866 23868 1 0.13986 296436.400000
23868 23869 1 0.10860 301825.392000
23868 23870 1 0.13986 296436.400000
23870 23871 1 0.10860 301825.392000
23870 23872 1 0.13986 296436.400000
23872 23873 1 0.10860 301825.392000
23874 23875 1 0.10860 301825.392000
23875 23876 1 0.13986 296436.400000
23875 23884 1 0.13986 296436.400000
23876 23877 1 0.18850 35430.112000
23876 23878 1 0.13986 296436.400000
23878 23879 1 0.10860 301825.392000
23878 23880 1 0.13986 296436.400000
23880 23881 1 0.10860 301825.392000
23880 23882 1 0.13986 296436.400000
23882 23883 1 0.10860 301825.392000
23882 23884 1 0.13986 296436.400000
23884 23885 1 0.10860 301825.392000
23886 23887 1 0.16500 119244.000000
23887 23888 1 0.09450 207108.000000
23889 23890 1 0.16500 119244.000000
23890 23891 1 0.09450 207108.000000
23892 23893 1 0.16500 119244.000000
23893 23894 1 0.09450 207108.000000
23895 23896 1 0.16500 119244.000000
23896 23897 1 0.09450 207108.000000
23898 23899 1 0.16500 119244.000000
23899 23900 1 0.09450 207108.000000
23901 23902 1 0.16500 119244.000000
23902 23903 1 0.09450 207108.000000
23904 23905 1 0.16500 119244.000000
23905 23906 1 0.09450 207108.000000
23907 23908 1 0.16500 119244.000000
23908 23909 1 0.09450 207108.000000
23910 23911 1 0.16500 119244.000000
23911 23912 1 0.09450 207108.000000
23913 23914 1 0.16500 119244.000000
23914 23915 1 0.09450 207108.000000
23916 23917 1 0.16500 119244.000000
23917 23918 1 0.09450 207108.000000
23919 23920 1 0.16500 119244.000000
23920 23921 1 0.09450 207108.000000
23922 23923 1 0.16500 119244.000000
23923 23924 1 0.09450 207108.000000
23925 23926 1 0.16500 119244.000000
23926 23927 1 0.09450 207108.000000
23928 23929 1 0.16500 119244.000000
23929 23930 1 0.09450 207108.000000
23931 23932 1 0.16500 119244.000000
23932 23933 1 0.09450 207108.000000
23934 23935 1 0.16500 119244.000000
23935 23936 1 0.09450 207108.000000
23937 23938 1 0.16500 119244.000000
23938 23939 1 0.09450 207108.000000
23940 23941 1 0.16500 119244.000000
23941 23942 1 0.09450 207108.000000
23943 23944 1 0.16500 119244.000000
23944 23945 1 0.09450 207108.000000
23946 23947 1 0.16500 119244.000000
23947 23948 1 0.09450 207108.000000
23949 23950 1 0.16500 119244.000000
23950 23951 1 0.09450 207108.000000
23952 23953 1 0.16500 119244.000000
23953 23954 1 0.09450 207108.000000
23955 23956 1 0.16500 119244.000000
23956 23957 1 0.09450 207108.000000
23958 23959 1 0.16500 119244.000000
23959 23960 1 0.09450 207108.000000
23961 23962 1 0.16500 119244.000000
23962 23963 1 0.09450 207108.000000
23964 23965 1 0.16500 119244.000000
23965 23966 1 0.09450 207108.000000
23967 23968 1 0.16500 119244.000000
23968 23969 1 0.09450 207108.000000
23970 23971 1 0.16500 119244.000000
23971 23972 1 0.09450 207108.000000
23973 23974 1 0.16500 119244.000000
23974 23975 1 0.09450 207108.000000
23976 23977 1 0.16500 119244.000000
23977 23978 1 0.09450 207108.000000
23979 23980 1 0.16500 119244.000000
23980 23981 1 0.09450 207108.000000
23982 23983 1 0.16500 119244.000000
23983 23984 1 0.09450 207108.000000
23985 23986 1 0.16500 119244.000000
23986 23987 1 0.09450 207108.000000
23988 23989 1 0.16500 119244.000000
23989 23990 1 0.09450 207108.000000
23991 23992 1 0.16500 119244.000000
23992 23993 1 0.09450 207108.000000
23994 23995 1 0.16500 119244.000000
23995 23996 1 0.09450 207108.000000
23997 23998 1 0.16500 119244.000000
23998 23999 1 0.09450 207108.000000
24000 24001 1 0.16500 119244.000000
24001 24002 1 0.09450 207108.000000
24003 24004 1 0.16500 119244.000000
24004 24005 1 0.09450 207108.000000
24006 24007 1 0.16500 119244.000000
24007 24008 1 0.09450 207108.000000
24009 24010 1 0.16500 119244.000000
24010 24011 1 0.09450 207108.000000
24012 24013 1 0.16500 119244.000000
24013 24014 1 0.09450 207108.000000
24015 24016 1 0.16500 119244.000000
24016 24017 1 0.09450 207108.000000
24018 24019 1 0.16500 119244.000000
24019 24020 1 0.09450 207108.000000
24021 24022 1 0.16500 119244.000000
24022 24023 1 0.09450 207108.000000
24024 24025 1 0.16500 119244.000000
24025 24026 1 0.09450 207108.000000
24027 24028 1 0.16500 119244.000000
24028 24029 1 0.09450 207108.000000
24030 24031 1 0.16500 119244.000000
24031 24032 1 0.09450 207108.000000
24033 24034 1 0.16500 119244.000000
24034 24035 1 0.09450 207108.000000
24036 24037 1 0.16500 119244.000000
24037 24038 1 0.09450 207108.000000
24039 24040 1 0.16500 119244.000000
24040 24041 1 0.09450 207108.000000
24042 24043 1 0.16500 119244.000000
24043 24044 1 0.09450 207108.000000
24045 24046 1 0.16500 119244.000000
24046 24047 1 0.09450 207108.000000
24048 24049 1 0.16500 119244.000000
24049 24050 1 0.09450 207108.000000
24051 24052 1 0.16500 119244.000000
24052 24053 1 0.09450 207108.000000
24054 24055 1 0.16500 119244.000000
24055 24056 1 0.09450 207108.000000
24057 24058 1 0.16500 119244.000000
24058 24059 1 0.09450 207108.000000
24060 24061 1 0.16500 119244.000000
24061 24062 1 0.09450 207108.000000
24063 24064 1 0.16500 119244.000000
24064 24065 1 0.09450 207108.000000
24066 24067 1 0.16500 119244.000000
24067 24068 1 0.09450 207108.000000
24069 24070 1 0.16500 119244.000000
24070 24071 1 0.09450 207108.000000
24072 24073 1 0.16500 119244.000000
24073 24074 1 0.09450 207108.000000
24075 24076 1 0.16500 119244.000000
24076 24077 1 0.09450 207108.000000
24078 24079 1 0.16500 119244.000000
24079 24080 1 0.09450 207108.000000
24081 24082 1 0.16500 119244.000000
24082 24083 1 0.09450 207108.000000
24084 24085 1 0.16500 119244.000000
24085 24086 1 0.09450 207108.000000
24087 24088 1 0.16500 119244.000000
24088 24089 1 0.09450 207108.000000
24090 24091 1 0.16500 119244.000000
24091 24092 1 0.09450 207108.000000
24093 24094 1 0.16500 119244.000000
24094 24095 1 0.09450 207108.000000
24096 24097 1 0.16500 119244.000000
24097 24098 1 0.09450 207108.000000
24099 24100 1 0.16500 119244.000000
24100 24101 1 0.09450 207108.000000
24102 24103 1 0.16500 119244.000000
24103 24104 1 0.09450 207108.000000
24105 24106 1 0.16500 119244.000000
24106 24107 1 0.09450 207108.000000
24108 24109 1 0.16500 119244.000000
24109 24110 1 0.09450 207108.000000
24111 24112 1 0.16500 119244.000000
24112 24113 1 0.09450 207108.000000
24114 24115 1 0.16500 119244.000000
24115 24116 1 0.09450 207108.000000
24117 24118 1 0.16500 119244.000000
24118 24119 1 0.09450 207108.000000
24120 24121 1 0.16500 119244.000000
24121 24122 1 0.09450 207108.000000
24123 24124 1 0.16500 119244.000000
24124 24125 1 0.09450 207108.000000
24126 24127 1 0.16500 119244.000000
24127 24128 1 0.09450 207108.000000
24129 24130 1 0.16500 119244.000000
24130 24131 1 0.09450 207108.000000
24132 24133 1 0.16500 119244.000000
24133 24134 1 0.09450 207108.000000
24135 24136 1 0.16500 119244.000000
24136 24137 1 0.09450 207108.000000
24138 24139 1 0.16500 119244.000000
24139 24140 1 0.09450 207108.000000
24141 24142 1 0.16500 119244.000000
24142 24143 1 0.09450 207108.000000
24144 24145 1 0.16500 119244.000000
24145 24146 1 0.09450 207108.000000
24147 24148 1 0.16500 119244.000000
24148 24149 1 0.09450 207108.000000
24150 24151 1 0.16500 119244.000000
24151 24152 1 0.09450 207108.000000
24153 24154 1 0.16500 119244.000000
24154 24155 1 0.09450 207108.000000
24156 24157 1 0.16500 119244.000000
24157 24158 1 0.09450 207108.000000
24159 24160 1 0.16500 119244.000000
24160 24161 1 0.09450 207108.000000
24162 24163 1 0.16500 119244.000000
24163 24164 1 0.09450 207108.000000
24165 24166 1 0.16500 119244.000000
24166 24167 1 0.09450 207108.000000
24168 24169 1 0.16500 119244.000000
24169 24170 1 0.09450 207108.000000
24171 24172 1 0.16500 119244.000000
24172 24173 1 0.09450 207108.000000
24174 24175 1 0.16500 119244.000000
24175 24176 1 0.09450 207108.000000
24177 24178 1 0.16500 119244.000000
24178 24179 1 0.09450 207108.000000
24180 24181 1 0.16500 119244.000000
24181 24182 1 0.09450 207108.000000
24183 24184 1 0.16500 119244.000000
24184 24185 1 0.09450 207108.000000
24186 24187 1 0.16500 119244.000000
24187 24188 1 0.09450 207108.000000
24189 24190 1 0.16500 119244.000000
24190 24191 1 0.09450 207108.000000
24192 24193 1 0.16500 119244.000000
24193 24194 1 0.09450 207108.000000
24195 24196 1 0.16500 119244.000000
24196 24197 1 0.09450 207108.000000
24198 24199 1 0.16500 119244.000000
24199 24200 1 0.09450 207108.000000
24201 24202 1 0.16500 119244.000000
24202 24203 1 0.09450 207108.000000
24204 24205 1 0.16500 119244.000000
24205 24206 1 0.09450 207108.000000
24207 24208 1 0.16500 119244.000000
24208 24209 1 0.09450 207108.000000
24210 24211 1 0.16500 119244.000000
24211 24212 1 0.09450 207108.000000
24213 24214 1 0.16500 119244.000000
24214 24215 1 0.09450 207108.000000
24216 24217 1 0.16500 119244.000000
24217 24218 1 0.09450 207108.000000
24219 24220 1 0.16500 119244.000000
24220 24221 1 0.09450 207108.000000
24222 24223 1 0.16500 119244.000000
24223 24224 1 0.09450 207108.000000
24225 24226 1 0.16500 119244.000000
24226 24227 1 0.09450 207108.000000
24228 24229 1 0.16500 119244.000000
24229 24230 1 0.09450 207108.000000
24231 24232 1 0.16500 119244.000000
24232 24233 1 0.09450 207108.000000
24234 24235 1 0.16500 119244.000000
24235 24236 1 0.09450 207108.000000
24237 24238 1 0.16500 119244.000000
24238 24239 1 0.09450 207108.000000
24240 24241 1 0.16500 119244.000000
24241 24242 1 0.09450 207108.000000
24243 24244 1 0.16500 119244.000000
24244 24245 1 0.09450 207108.000000
24246 24247 1 0.16500 119244.000000
24247 24248 1 0.09450 207108.000000
24249 24250 1 0.16500 119244.000000
24250 24251 1 0.09450 207108.000000
24252 24253 1 0.16500 119244.000000
24253 24254 1 0.09450 207108.000000
24255 24256 1 0.16500 119244.000000
24256 24257 1 0.09450 207108.000000
24258 24259 1 0.16500 119244.000000
24259 24260 1 0.09450 207108.000000
24261 24262 1 0.16500 119244.000000
24262 24263 1 0.09450 207108.000000
24264 24265 1 0.16500 119244.000000
24265 24266 1 0.09450 207108.000000
24267 24268 1 0.16500 119244.000000
24268 24269 1 0.09450 207108.000000
24270 24271 1 0.16500 119244.000000
24271 24272 1 0.09450 207108.000000
24273 24274 1 0.16500 119244.000000
24274 24275 1 0.09450 207108.000000
24276 24277 1 0.16500 119244.000000
24277 24278 1 0.09450 207108.000000
24279 24280 1 0.16500 119244.000000
24280 24281 1 0.09450 207108.000000
24282 24283 1 0.16500 119244.000000
24283 24284 1 0.09450 207108.000000
24285 24286 1 0.16500 119244.000000
24286 24287 1 0.09450 207108.000000
24288 24289 1 0.16500 119244.000000
24289 24290 1 0.09450 207108.000000
24291 24292 1 0.16500 119244.000000
24292 24293 1 0.09450 207108.000000
24294 24295 1 0.16500 119244.000000
24295 24296 1 0.09450 207108.000000
24297 24298 1 0.16500 119244.000000
24298 24299 1 0.09450 207108.000000
24300 24301 1 0.16500 119244.000000
24301 24302 1 0.09450 207108.000000
24303 24304 1 0.16500 119244.000000
24304 24305 1 0.09450 207108.000000
24306 24307 1 0.16500 119244.000000
24307 24308 1 0.09450 207108.000000
24309 24310 1 0.16500 119244.000000
24310 24311 1 0.09450 207108.000000
24312 24313 1 0.16500 119244.000000
24313 24314 1 0.09450 207108.000000
24315 24316 1 0.16500 119244.000000
24316 24317 1 0.09450 207108.000000
24318 24319 1 0.16500 119244.000000
24319 24320 1 0.09450 207108.000000
24321 24322 1 0.16500 119244.000000
24322 24323 1 0.09450 207108.000000
24324 24325 1 0.16500 119244.000000
24325 24326 1 0.09450 207108.000000
24327 24328 1 0.16500 119244.000000
24328 24329 1 0.09450 207108.000000
24330 24331 1 0.16500 119244.000000
24331 24332 1 0.09450 207108.000000
24333 24334 1 0.16500 119244.000000
24334 24335 1 0.09450 207108.000000
24336 24337 1 0.16500 119244.000000
24337 24338 1 0.09450 207108.000000
24339 24340 1 0.16500 119244.000000
24340 24341 1 0.09450 207108.000000
24342 24343 1 0.16500 119244.000000
24343 24344 1 0.09450 207108.000000
24345 24346 1 0.16500 119244.000000
24346 24347 1 0.09450 207108.000000
24348 24349 1 0.16500 119244.000000
24349 24350 1 0.09450 207108.000000
24351 24352 1 0.16500 119244.000000
24352 24353 1 0.09450 207108.000000
24354 24355 1 0.16500 119244.000000
24355 24356 1 0.09450 207108.000000
24357 24358 1 0.16500 119244.000000
24358 24359 1 0.09450 207108.000000
24360 24361 1 0.16500 119244.000000
24361 24362 1 0.09450 207108.000000
24363 24364 1 0.16500 119244.000000
24364 24365 1 0.09450 207108.000000
24366 24367 1 0.16500 119244.000000
24367 24368 1 0.09450 207108.000000
24369 24370 1 0.16500 119244.000000
24370 24371 1 0.09450 207108.000000
24372 24373 1 0.16500 119244.000000
24373 24374 1 0.09450 207108.000000
24375 24376 1 0.16500 119244.000000
24376 24377 1 0.09450 207108.000000
24378 24379 1 0.16500 119244.000000
24379 24380 1 0.09450 207108.000000
24381 24382 1 0.16500 119244.000000
24382 24383 1 0.09450 207108.000000
24384 24385 1 0.16500 119244.000000
24385 24386 1 0.09450 207108.000000
24387 24388 1 0.16500 119244.000000
24388 24389 1 0.09450 207108.000000
24390 24391 1 0.16500 119244.000000
24391 24392 1 0.09450 207108.000000
24393 24394 1 0.16500 119244.000000
24394 24395 1 0.09450 207108.000000
24396 24397 1 0.16500 119244.000000
24397 24398 1 0.09450 207108.000000
24399 24400 1 0.16500 119244.000000
24400 24401 1 0.09450 207108.000000
24402 24403 1 0.16500 119244.000000
24403 24404 1 0.09450 207108.000000
24405 24406 1 0.16500 119244.000000
24406 24407 1 0.09450 207108.000000
24408 24409 1 0.16500 119244.000000
24409 24410 1 0.09450 207108.000000
24411 24412 1 0.16500 119244.000000
24412 24413 1 0.09450 207108.000000
24414 24415 1 0.16500 119244.000000
24415 24416 1 0.09450 207108.000000
24417 24418 1 0.16500 119244.000000
24418 24419 1 0.09450 207108.000000
24420 24421 1 0.16500 119244.000000
24421 24422 1 0.09450 207108.000000
24423 24424 1 0.16500 119244.000000
24424 24425 1 0.09450 207108.000000
24426 24427 1 0.16500 119244.000000
24427 24428 1 0.09450 207108.000000
24429 24430 1 0.16500 119244.000000
24430 24431 1 0.09450 207108.000000
24432 24433 1 0.16500 119244.000000
24433 24434 1 0.09450 207108.000000
24435 24436 1 0.16500 119244.000000
24436 24437 1 0.09450 207108.000000
24438 24439 1 0.16500 119244.000000
24439 24440 1 0.09450 207108.000000
24441 24442 1 0.16500 119244.000000
24442 24443 1 0.09450 207108.000000
24444 24445 1 0.16500 119244.000000
24445 24446 1 0.09450 207108.000000
24447 24448 1 0.16500 119244.000000
24448 24449 1 0.09450 207108.000000
24450 24451 1 0.16500 119244.000000
24451 24452 1 0.09450 207108.000000
24453 24454 1 0.16500 119244.000000
24454 24455 1 0.09450 207108.000000
24456 24457 1 0.16500 119244.000000
24457 24458 1 0.09450 207108.000000
24459 24460 1 0.16500 119244.000000
24460 24461 1 0.09450 207108.000000
24462 24463 1 0.16500 119244.000000
24463 24464 1 0.09450 207108.000000
24465 24466 1 0.16500 119244.000000
24466 24467 1 0.09450 207108.000000
24468 24469 1 0.16500 119244.000000
24469 24470 1 0.09450 207108.000000
24471 24472 1 0.16500 119244.000000
24472 24473 1 0.09450 207108.000000
24474 24475 1 0.16500 119244.000000
24475 24476 1 0.09450 207108.000000
24477 24478 1 0.16500 119244.000000
24478 24479 1 0.09450 207108.000000
24480 24481 1 0.16500 119244.000000
24481 24482 1 0.09450 207108.000000
24483 24484 1 0.16500 119244.000000
24484 24485 1 0.09450 207108.000000
24486 24487 1 0.16500 119244.000000
24487 24488 1 0.09450 207108.000000
24489 24490 1 0.16500 119244.000000
24490 24491 1 0.09450 207108.000000
24492 24493 1 0.16500 119244.000000
24493 24494 1 0.09450 207108.000000
24495 24496 1 0.16500 119244.000000
24496 24497 1 0.09450 207108.000000
24498 24499 1 0.16500 119244.000000
24499 24500 1 0.09450 207108.000000
24501 24502 1 0.16500 119244.000000
24502 24503 1 0.09450 207108.000000
24504 24505 1 0.16500 119244.000000
24505 24506 1 0.09450 207108.000000
24507 24508 1 0.16500 119244.000000
24508 24509 1 0.09450 207108.000000
24510 24511 1 0.16500 119244.000000
24511 24512 1 0.09450 207108.000000
24513 24514 1 0.16500 119244.000000
24514 24515 1 0.09450 207108.000000
24516 24517 1 0.16500 119244.000000
24517 24518 1 0.09450 207108.000000
24519 24520 1 0.16500 119244.000000
24520 24521 1 0.09450 207108.000000
24522 24523 1 0.16500 119244.000000
24523 24524 1 0.09450 207108.000000
24525 24526 1 0.16500 119244.000000
24526 24527 1 0.09450 207108.000000
24528 24529 1 0.16500 119244.000000
24529 24530 1 0.09450 207108.000000
24531 24532 1 0.16500 119244.000000
24532 24533 1 0.09450 207108.000000
24534 24535 1 0.16500 119244.000000
24535 24536 1 0.09450 207108.000000
24537 24538 1 0.16500 119244.000000
24538 24539 1 0.09450 207108.000000
24540 24541 1 0.16500 119244.000000
24541 24542 1 0.09450 207108.000000
24543 24544 1 0.16500 119244.000000
24544 24545 1 0.09450 207108.000000
24546 24547 1 0.16500 119244.000000
24547 24548 1 0.09450 207108.000000
24549 24550 1 0.16500 119244.000000
24550 24551 1 0.09450 207108.000000
24552 24553 1 0.16500 119244.000000
24553 24554 1 0.09450 207108.000000
24555 24556 1 0.16500 119244.000000
24556 24557 1 0.09450 207108.000000
24558 24559 1 0.16500 119244.000000
24559 24560 1 0.09450 207108.000000
24561 24562 1 0.16500 119244.000000
24562 24563 1 0.09450 207108.000000
24564 24565 1 0.16500 119244.000000
24565 24566 1 0.09450 207108.000000
24567 24568 1 0.16500 119244.000000
24568 24569 1 0.09450 207108.000000
24570 24571 1 0.16500 119244.000000
24571 24572 1 0.09450 207108.000000
24573 24574 1 0.16500 119244.000000
24574 24575 1 0.09450 207108.000000
24576 24577 1 0.16500 119244.000000
24577 24578 1 0.09450 207108.000000
24579 24580 1 0.16500 119244.000000
24580 24581 1 0.09450 207108.000000
24582 24583 1 0.16500 119244.000000
24583 24584 1 0.09450 207108.000000
24585 24586 1 0.16500 119244.000000
24586 24587 1 0.09450 207108.000000
24588 24589 1 0.16500 119244.000000
24589 24590 1 0.09450 207108.000000
24591 24592 1 0.16500 119244.000000
24592 24593 1 0.09450 207108.000000
24594 24595 1 0.16500 119244.000000
24595 24596 1 0.09450 207108.000000
24597 24598 1 0.16500 119244.000000
24598 24599 1 0.09450 207108.000000
24600 24601 1 0.16500 119244.000000
24601 24602 1 0.09450 207108.000000
24603 24604 1 0.16500 119244.000000
24604 24605 1 0.09450 207108.000000
24606 24607 1 0.16500 119244.000000
24607 24608 1 0.09450 207108.000000
24609 24610 1 0.16500 119244.000000
24610 24611 1 0.09450 207108.000000
24612 24613 1 0.16500 119244.000000
24613 24614 1 0.09450 207108.000000
24615 24616 1 0.16500 119244.000000
24616 24617 1 0.09450 207108.000000
24618 24619 1 0.16500 119244.000000
24619 24620 1 0.09450 207108.000000
24621 24622 1 0.16500 119244.000000
24622 24623 1 0.09450 207108.000000
24624 24625 1 0.16500 119244.000000
24624 24627 1 0.16500 119244.000000
24625 24626 1 0.09450 207108.000000
24627 24628 1 0.09450 207108.000000
24629 24630 1 0.16500 119244.000000
24629 24632 1 0.16500 119244.000000
24630 24631 1 0.09450 207108.000000
24632 24633 1 0.09450 207108.000000
24634 24635 1 0.16500 119244.000000
24634 24637 1 0.16500 119244.000000
24635 24636 1 0.09450 207108.000000
24637 24638 1 0.09450 207108.000000
24639 24640 1 0.16500 119244.000000
24639 24642 1 0.16500 119244.000000
24640 24641 1 0.09450 207108.000000
24642 24643 1 0.09450 207108.000000
24644 24645 1 0.16500 119244.000000
24644 24647 1 0.16500 119244.000000
24645 24646 1 0.09450 207108.000000
24647 24648 1 0.09450 207108.000000
24649 24650 1 0.16500 119244.000000
24649 24652 1 0.16500 119244.000000
24650 24651 1 0.09450 207108.000000
24652 24653 1 0.09450 207108.000000
24654 24655 1 0.16500 119244.000000
24654 24657 1 0.16500 119244.000000
24655 24656 1 0.09450 207108.000000
24657 24658 1 0.09450 207108.000000
24659 24660 1 0.16500 119244.000000
24659 24662 1 0.16500 119244.000000
24660 24661 1 0.09450 207108.000000
24662 24663 1 0.09450 207108.000000
24664 24665 1 0.16500 119244.000000
24664 24667 1 0.16500 119244.000000
24665 24666 1 0.09450 207108.000000
24667 24668 1 0.09450 207108.000000
24669 24670 1 0.16500 119244.000000
24669 24672 1 0.16500 119244.000000
24670 24671 1 0.09450 207108.000000
24672 24673 1 0.09450 207108.000000
24674 24675 1 0.16500 119244.000000
24674 24677 1 0.16500 119244.000000
24675 24676 1 0.09450 207108.000000
24677 24678 1 0.09450 207108.000000
24679 24680 1 0.16500 119244.000000
24679 24682 1 0.16500 119244.000000
24680 24681 1 0.09450 207108.000000
24682 24683 1 0.09450 207108.000000
24684 24685 1 0.16500 119244.000000
24684 24687 1 0.16500 119244.000000
24685 24686 1 0.09450 207108.000000
24687 24688 1 0.09450 207108.000000
24689 24690 1 0.16500 119244.000000
24689 24692 1 0.16500 119244.000000
24690 24691 1 0.09450 207108.000000
24692 24693 1 0.09450 207108.000000
24694 24695 1 0.16500 119244.000000
24694 24697 1 0.16500 119244.000000
24695 24696 1 0.09450 207108.000000
24697 24698 1 0.09450 207108.000000
24699 24700 1 0.16500 119244.000000
24699 24702 1 0.16500 119244.000000
24700 24701 1 0.09450 207108.000000
24702 24703 1 0.09450 207108.000000
24704 24705 1 0.16500 119244.000000
24704 24707 1 0.16500 119244.000000
24705 24706 1 0.09450 207108.000000
24707 24708 1 0.09450 207108.000000
24709 24710 1 0.16500 119244.000000
24709 24712 1 0.16500 119244.000000
24710 24711 1 0.09450 207108.000000
24712 24713 1 0.09450 207108.000000
24714 24715 1 0.16500 119244.000000
24714 24717 1 0.16500 119244.000000
24715 24716 1 0.09450 207108.000000
24717 24718 1 0.09450 207108.000000
24719 24720 1 0.16500 119244.000000
24719 24722 1 0.16500 119244.000000
24720 24721 1 0.09450 207108.000000
24722 24723 1 0.09450 207108.000000
24724 24725 1 0.16500 119244.000000
24724 24727 1 0.16500 119244.000000
24725 24726 1 0.09450 207108.000000
24727 24728 1 0.09450 207108.000000
24729 24730 1 0.16500 119244.000000
24729 24732 1 0.16500 119244.000000
24730 24731 1 0.09450 207108.000000
24732 24733 1 0.09450 207108.000000
24734 24735 1 0.16500 119244.000000
24734 24737 1 0.16500 119244.000000
24735 24736 1 0.09450 207108.000000
24737 24738 1 0.09450 207108.000000
24739 24740 1 0.16500 119244.000000
24739 24742 1 0.16500 119244.000000
24740 24741 1 0.09450 207108.000000
24742 24743 1 0.09450 207108.000000
24744 24745 1 0.16500 119244.000000
24744 24747 1 0.16500 119244.000000
24745 24746 1 0.09450 207108.000000
24747 24748 1 0.09450 207108.000000
24749 24750 1 0.16500 119244.000000
24749 24752 1 0.16500 119244.000000
24750 24751 1 0.09450 207108.000000
24752 24753 1 0.09450 207108.000000
24754 24755 1 0.16500 119244.000000
24754 24757 1 0.16500 119244.000000
24755 24756 1 0.09450 207108.000000
24757 24758 1 0.09450 207108.000000
24759 24760 1 0.16500 119244.000000
24759 24762 1 0.16500 119244.000000
24760 24761 1 0.09450 207108.000000
24762 24763 1 0.09450 207108.000000
24764 24765 1 0.16500 119244.000000
24764 24767 1 0.16500 119244.000000
24765 24766 1 0.09450 207108.000000
24767 24768 1 0.09450 207108.000000
24769 24770 1 0.16500 119244.000000
24769 24772 1 0.16500 119244.000000
24770 24771 1 0.09450 207108.000000
24772 24773 1 0.09450 207108.000000
24774 24775 1 0.16500 119244.000000
24774 24777 1 0.16500 119244.000000
24775 24776 1 0.09450 207108.000000
24777 24778 1 0.09450 207108.000000
24779 24780 1 0.16500 119244.000000
24779 24782 1 0.16500 119244.000000
24780 24781 1 0.09450 207108.000000
24782 24783 1 0.09450 207108.000000
24784 24785 1 0.16500 119244.000000
24784 24787 1 0.16500 119244.000000
24785 24786 1 0.09450 207108.000000
24787 24788 1 0.09450 207108.000000
24789 24790 1 0.16500 119244.000000
24789 24792 1 0.16500 119244.000000
24790 24791 1 0.09450 207108.000000
24792 24793 1 0.09450 207108.000000
24794 24795 1 0.16500 119244.000000
24794 24797 1 0.16500 119244.000000
24795 24796 1 0.09450 207108.000000
24797 24798 1 0.09450 207108.000000
24799 24800 1 0.16500 119244.000000
24799 24802 1 0.16500 119244.000000
24800 24801 1 0.09450 207108.000000
24802 24803 1 0.09450 207108.000000
24804 24805 1 0.16500 119244.000000
24804 24807 1 0.16500 119244.000000
24805 24806 1 0.09450 207108.000000
24807 24808 1 0.09450 207108.000000
24809 24810 1 0.16500 119244.000000
24809 24812 1 0.16500 119244.000000
24810 24811 1 0.09450 207108.000000
24812 24813 1 0.09450 207108.000000

[ pairs ]
; ai aj funct params
16214 16217 1
16214 16218 1
16214 16222 1
16214 16225 1
16215 16219 1
16215 16220 1
16215 16223 1
16216 16221 1
16216 16222 1
16216 16225 1
16217 16219 1
16217 16220 1
16217 16224 1
16218 16223 1
16218 16224 1
16219 16221 1
16219 16222 1
16220 16225 1
16221 16223 1
16221 16224 1
16223 16225 1
16228 16231 1
16228 16232 1
16228 16236 1
16228 16239 1
16229 16233 1
16229 16234 1
16229 16237 1
16230 16235 1
16230 16236 1
16230 16239 1
16231 16233 1
16231 16234 1
16231 16238 1
16232 16237 1
16232 16238 1
16233 16235 1
16233 16236 1
16234 16239 1
16235 16237 1
16235 16238 1
16237 16239 1
16242 16245 1
16242 16246 1
16242 16250 1
16242 16253 1
16243 16247 1
16243 16248 1
16243 16251 1
16244 16249 1
16244 16250 1
16244 16253 1
16245 16247 1
16245 16248 1
16245 16252 1
16246 16251 1
16246 16252 1
16247 16249 1
16247 16250 1
16248 16253 1
16249 16251 1
16249 16252 1
16251 16253 1
16256 16259 1
16256 16260 1
16256 16264 1
16256 16267 1
16257 16261 1
16257 16262 1
16257 16265 1
16258 16263 1
16258 16264 1
16258 16267 1
16259 16261 1
16259 16262 1
16259 16266 1
16260 16265 1
16260 16266 1
16261 16263 1
16261 16264 1
16262 16267 1
16263 16265 1
16263 16266 1
16265 16267 1
16270 16273 1
16270 16274 1
16270 16278 1
16270 16281 1
16271 16275 1
16271 16276 1
16271 16279 1
16272 16277 1
16272 16278 1
16272 16281 1
16273 16275 1
16273 16276 1
16273 16280 1
16274 16279 1
16274 16280 1
16275 16277 1
16275 16278 1
16276 16281 1
16277 16279 1
16277 16280 1
16279 16281 1
16284 16287 1
16284 16288 1
16284 16292 1
16284 16295 1
16285 16289 1
16285 16290 1
16285 16293 1
16286 16291 1
16286 16292 1
16286 16295 1
16287 16289 1
16287 16290 1
16287 16294 1
16288 16293 1
16288 16294 1
16289 16291 1
16289 16292 1
16290 16295 1
16291 16293 1
16291 16294 1
16293 16295 1
16298 16301 1
16298 16302 1
16298 16306 1
16298 16309 1
16299 16303 1
16299 16304 1
16299 16307 1
16300 16305 1
16300 16306 1
16300 16309 1
16301 16303 1
16301 16304 1
16301 16308 1
16302 16307 1
16302 16308 1
16303 16305 1
16303 16306 1
16304 16309 1
16305 16307 1
16305 16308 1
16307 16309 1
16312 16315 1
16312 16316 1
16312 16320 1
16312 16323 1
16313 16317 1
16313 16318 1
16313 16321 1
16314 16319 1
16314 16320 1
16314 16323 1
16315 16317 1
16315 16318 1
16315 16322 1
16316 16321 1
16316 16322 1
16317 16319 1
16317 16320 1
16318 16323 1
16319 16321 1
16319 16322 1
16321 16323 1
16326 16329 1
16326 16330 1
16326 16334 1
16326 16337 1
16327 16331 1
16327 16332 1
16327 16335 1
16328 16333 1
16328 16334 1
16328 16337 1
16329 16331 1
16329 16332 1
16329 16336 1
16330 16335 1
16330 16336 1
16331 16333 1
16331 16334 1
16332 16337 1
16333 16335 1
16333 16336 1
16335 16337 1
16340 16343 1
16340 16344 1
16340 16348 1
16340 16351 1
16341 16345 1
16341 16346 1
16341 16349 1
16342 16347 1
16342 16348 1
16342 16351 1
16343 16345 1
16343 16346 1
16343 16350 1
16344 16349 1
16344 16350 1
16345 16347 1
16345 16348 1
16346 16351 1
16347 16349 1
16347 16350 1
16349 16351 1
16354 16357 1
16354 16358 1
16354 16362 1
16354 16365 1
16355 16359 1
16355 16360 1
16355 16363 1
16356 16361 1
16356 16362 1
16356 16365 1
16357 16359 1
16357 16360 1
16357 16364 1
16358 16363 1
16358 16364 1
16359 16361 1
16359 16362 1
16360 16365 1
16361 16363 1
16361 16364 1
16363 16365 1
16368 16371 1
16368 16372 1
16368 16376 1
16368 16379 1
16369 16373 1
16369 16374 1
16369 16377 1
16370 16375 1
16370 16376 1
16370 16379 1
16371 16373 1
16371 16374 1
16371 16378 1
16372 16377 1
16372 16378 1
16373 16375 1
16373 16376 1
16374 16379 1
16375 16377 1
16375 16378 1
16377 16379 1
16382 16385 1
16382 16386 1
16382 16390 1
16382 16393 1
16383 16387 1
16383 16388 1
16383 16391 1
16384 16389 1
16384 16390 1
16384 16393 1
16385 16387 1
16385 16388 1
16385 16392 1
16386 16391 1
16386 16392 1
16387 16389 1
16387 16390 1
16388 16393 1
16389 16391 1
16389 16392 1
16391 16393 1
16396 16399 1
16396 16400 1
16396 16404 1
16396 16407 1
16397 16401 1
16397 16402 1
16397 16405 1
16398 16403 1
16398 16404 1
16398 16407 1
16399 16401 1
16399 16402 1
16399 16406 1
16400 16405 1
16400 16406 1
16401 16403 1
16401 16404 1
16402 16407 1
16403 16405 1
16403 16406 1
16405 16407 1
16410 16413 1
16410 16414 1
16410 16418 1
16410 16421 1
16411 16415 1
16411 16416 1
16411 16419 1
16412 16417 1
16412 16418 1
16412 16421 1
16413 16415 1
16413 16416 1
16413 16420 1
16414 16419 1
16414 16420 1
16415 16417 1
16415 16418 1
16416 16421 1
16417 16419 1
16417 16420 1
16419 16421 1
16424 16427 1
16424 16428 1
16424 16432 1
16424 16435 1
16425 16429 1
16425 16430 1
16425 16433 1
16426 16431 1
16426 16432 1
16426 16435 1
16427 16429 1
16427 16430 1
16427 16434 1
16428 16433 1
16428 16434 1
16429 16431 1
16429 16432 1
16430 16435 1
16431 16433 1
16431 16434 1
16433 16435 1
16438 16441 1
16438 16442 1
16438 16446 1
16438 16449 1
16439 16443 1
16439 16444 1
16439 16447 1
16440 16445 1
16440 16446 1
16440 16449 1
16441 16443 1
16441 16444 1
16441 16448 1
16442 16447 1
16442 16448 1
16443 16445 1
16443 16446 1
16444 16449 1
16445 16447 1
16445 16448 1
16447 16449 1
16452 16455 1
16452 16456 1
16452 16460 1
16452 16463 1
16453 16457 1
16453 16458 1
16453 16461 1
16454 16459 1
16454 16460 1
16454 16463 1
16455 16457 1
16455 16458 1
16455 16462 1
16456 16461 1
16456 16462 1
16457 16459 1
16457 16460 1
16458 16463 1
16459 16461 1
16459 16462 1
16461 16463 1
16466 16469 1
16466 16470 1
16466 16474 1
16466 16477 1
16467 16471 1
16467 16472 1
16467 16475 1
16468 16473 1
16468 16474 1
16468 16477 1
16469 16471 1
16469 16472 1
16469 16476 1
16470 16475 1
16470 16476 1
16471 16473 1
16471 16474 1
16472 16477 1
16473 16475 1
16473 16476 1
16475 16477 1
16480 16483 1
16480 16484 1
16480 16488 1
16480 16491 1
16481 16485 1
16481 16486 1
16481 16489 1
16482 16487 1
16482 16488 1
16482 16491 1
16483 16485 1
16483 16486 1
16483 16490 1
16484 16489 1
16484 16490 1
16485 16487 1
16485 16488 1
16486 16491 1
16487 16489 1
16487 16490 1
16489 16491 1
16494 16497 1
16494 16498 1
16494 16502 1
16494 16505 1
16495 16499 1
16495 16500 1
16495 16503 1
16496 16501 1
16496 16502 1
16496 16505 1
16497 16499 1
16497 16500 1
16497 16504 1
16498 16503 1
16498 16504 1
16499 16501 1
16499 16502 1
16500 16505 1
16501 16503 1
16501 16504 1
16503 16505 1
16508 16511 1
16508 16512 1
16508 16516 1
16508 16519 1
16509 16513 1
16509 16514 1
16509 16517 1
16510 16515 1
16510 16516 1
16510 16519 1
16511 16513 1
16511 16514 1
16511 16518 1
16512 16517 1
16512 16518 1
16513 16515 1
16513 16516 1
16514 16519 1
16515 16517 1
16515 16518 1
16517 16519 1
16522 16525 1
16522 16526 1
16522 16530 1
16522 16533 1
16523 16527 1
16523 16528 1
16523 16531 1
16524 16529 1
16524 16530 1
16524 16533 1
16525 16527 1
16525 16528 1
16525 16532 1
16526 16531 1
16526 16532 1
16527 16529 1
16527 16530 1
16528 16533 1
16529 16531 1
16529 16532 1
16531 16533 1
16536 16539 1
16536 16540 1
16536 16544 1
16536 16547 1
16537 16541 1
16537 16542 1
16537 16545 1
16538 16543 1
16538 16544 1
16538 16547 1
16539 16541 1
16539 16542 1
16539 16546 1
16540 16545 1
16540 16546 1
16541 16543 1
16541 16544 1
16542 16547 1
16543 16545 1
16543 16546 1
16545 16547 1
16550 16553 1
16550 16554 1
16550 16558 1
16550 16561 1
16551 16555 1
16551 16556 1
16551 16559 1
16552 16557 1
16552 16558 1
16552 16561 1
16553 16555 1
16553 16556 1
16553 16560 1
16554 16559 1
16554 16560 1
16555 16557 1
16555 16558 1
16556 16561 1
16557 16559 1
16557 16560 1
16559 16561 1
16564 16567 1
16564 16568 1
16564 16572 1
16564 16575 1
16565 16569 1
16565 16570 1
16565 16573 1
16566 16571 1
16566 16572 1
16566 16575 1
16567 16569 1
16567 16570 1
16567 16574 1
16568 16573 1
16568 16574 1
16569 16571 1
16569 16572 1
16570 16575 1
16571 16573 1
16571 16574 1
16573 16575 1
16578 16581 1
16578 16582 1
16578 16586 1
16578 16589 1
16579 16583 1
16579 16584 1
16579 16587 1
16580 16585 1
16580 16586 1
16580 16589 1
16581 16583 1
16581 16584 1
16581 16588 1
16582 16587 1
16582 16588 1
16583 16585 1
16583 16586 1
16584 16589 1
16585 16587 1
16585 16588 1
16587 16589 1
16592 16595 1
16592 16596 1
16592 16600 1
16592 16603 1
16593 16597 1
16593 16598 1
16593 16601 1
16594 16599 1
16594 16600 1
16594 16603 1
16595 16597 1
16595 16598 1
16595 16602 1
16596 16601 1
16596 16602 1
16597 16599 1
16597 16600 1
16598 16603 1
16599 16601 1
16599 16602 1
16601 16603 1
16606 16609 1
16606 16610 1
16606 16614 1
16606 16617 1
16607 16611 1
16607 16612 1
16607 16615 1
16608 16613 1
16608 16614 1
16608 16617 1
16609 16611 1
16609 16612 1
16609 16616 1
16610 16615 1
16610 16616 1
16611 16613 1
16611 16614 1
16612 16617 1
16613 16615 1
16613 16616 1
16615 16617 1
16620 16623 1
16620 16624 1
16620 16628 1
16620 16631 1
16621 16625 1
16621 16626 1
16621 16629 1
16622 16627 1
16622 16628 1
16622 16631 1
16623 16625 1
16623 16626 1
16623 16630 1
16624 16629 1
16624 16630 1
16625 16627 1
16625 16628 1
16626 16631 1
16627 16629 1
16627 16630 1
16629 16631 1
16634 16637 1
16634 16638 1
16634 16642 1
16634 16645 1
16635 16639 1
16635 16640 1
16635 16643 1
16636 16641 1
16636 16642 1
16636 16645 1
16637 16639 1
16637 16640 1
16637 16644 1
16638 16643 1
16638 16644 1
16639 16641 1
16639 16642 1
16640 16645 1
16641 16643 1
16641 16644 1
16643 16645 1
16648 16651 1
16648 16652 1
16648 16656 1
16648 16659 1
16649 16653 1
16649 16654 1
16649 16657 1
16650 16655 1
16650 16656 1
16650 16659 1
16651 16653 1
16651 16654 1
16651 16658 1
16652 16657 1
16652 16658 1
16653 16655 1
16653 16656 1
16654 16659 1
16655 16657 1
16655 16658 1
16657 16659 1
16662 16665 1
16662 16666 1
16662 16670 1
16662 16673 1
16663 16667 1
16663 16668 1
16663 16671 1
16664 16669 1
16664 16670 1
16664 16673 1
16665 16667 1
16665 16668 1
16665 16672 1
16666 16671 1
16666 16672 1
16667 16669 1
16667 16670 1
16668 16673 1
16669 16671 1
16669 16672 1
16671 16673 1
16676 16679 1
16676 16680 1
16676 16684 1
16676 16687 1
16677 16681 1
16677 16682 1
16677 16685 1
16678 16683 1
16678 16684 1
16678 16687 1
16679 16681 1
16679 16682 1
16679 16686 1
16680 16685 1
16680 16686 1
16681 16683 1
16681 16684 1
16682 16687 1
16683 16685 1
16683 16686 1
16685 16687 1
16690 16693 1
16690 16694 1
16690 16698 1
16690 16701 1
16691 16695 1
16691 16696 1
16691 16699 1
16692 16697 1
16692 16698 1
16692 16701 1
16693 16695 1
16693 16696 1
16693 16700 1
16694 16699 1
16694 16700 1
16695 16697 1
16695 16698 1
16696 16701 1
16697 16699 1
16697 16700 1
16699 16701 1
16704 16707 1
16704 16708 1
16704 16712 1
16704 16715 1
16705 16709 1
16705 16710 1
16705 16713 1
16706 16711 1
16706 16712 1
16706 16715 1
16707 16709 1
16707 16710 1
16707 16714 1
16708 16713 1
16708 16714 1
16709 16711 1
16709 16712 1
16710 16715 1
16711 16713 1
16711 16714 1
16713 16715 1
16718 16721 1
16718 16722 1
16718 16726 1
16718 16729 1
16719 16723 1
16719 16724 1
16719 16727 1
16720 16725 1
16720 16726 1
16720 16729 1
16721 16723 1
16721 16724 1
16721 16728 1
16722 16727 1
16722 16728 1
16723 16725 1
16723 16726 1
16724 16729 1
16725 16727 1
16725 16728 1
16727 16729 1
16732 16735 1
16732 16736 1
16732 16740 1
16732 16743 1
16733 16737 1
16733 16738 1
16733 16741 1
16734 16739 1
16734 16740 1
16734 16743 1
16735 16737 1
16735 16738 1
16735 16742 1
16736 16741 1
16736 16742 1
16737 16739 1
16737 16740 1
16738 16743 1
16739 16741 1
16739 16742 1
16741 16743 1
16746 16749 1
16746 16750 1
16746 16754 1
16746 16757 1
16747 16751 1
16747 16752 1
16747 16755 1
16748 16753 1
16748 16754 1
16748 16757 1
16749 16751 1
16749 16752 1
16749 16756 1
16750 16755 1
16750 16756 1
16751 16753 1
16751 16754 1
16752 16757 1
16753 16755 1
16753 16756 1
16755 16757 1
16760 16763 1
16760 16764 1
16760 16768 1
16760 16771 1
16761 16765 1
16761 16766 1
16761 16769 1
16762 16767 1
16762 16768 1
16762 16771 1
16763 16765 1
16763 16766 1
16763 16770 1
16764 16769 1
16764 16770 1
16765 16767 1
16765 16768 1
16766 16771 1
16767 16769 1
16767 16770 1
16769 16771 1
16774 16777 1
16774 16778 1
16774 16782 1
16774 16785 1
16775 16779 1
16775 16780 1
16775 16783 1
16776 16781 1
16776 16782 1
16776 16785 1
16777 16779 1
16777 16780 1
16777 16784 1
16778 16783 1
16778 16784 1
16779 16781 1
16779 16782 1
16780 16785 1
16781 16783 1
16781 16784 1
16783 16785 1
16788 16791 1
16788 16792 1
16788 16796 1
16788 16799 1
16789 16793 1
16789 16794 1
16789 16797 1
16790 16795 1
16790 16796 1
16790 16799 1
16791 16793 1
16791 16794 1
16791 16798 1
16792 16797 1
16792 16798 1
16793 16795 1
16793 16796 1
16794 16799 1
16795 16797 1
16795 16798 1
16797 16799 1
16802 16805 1
16802 16806 1
16802 16810 1
16802 16813 1
16803 16807 1
16803 16808 1
16803 16811 1
16804 16809 1
16804 16810 1
16804 16813 1
16805 16807 1
16805 16808 1
16805 16812 1
16806 16811 1
16806 16812 1
16807 16809 1
16807 16810 1
16808 16813 1
16809 16811 1
16809 16812 1
16811 16813 1
16816 16819 1
16816 16820 1
16816 16824 1
16816 16827 1
16817 16821 1
16817 16822 1
16817 16825 1
16818 16823 1
16818 16824 1
16818 16827 1
16819 16821 1
16819 16822 1
16819 16826 1
16820 16825 1
16820 16826 1
16821 16823 1
16821 16824 1
16822 16827 1
16823 16825 1
16823 16826 1
16825 16827 1
16830 16833 1
16830 16834 1
16830 16838 1
16830 16841 1
16831 16835 1
16831 16836 1
16831 16839 1
16832 16837 1
16832 16838 1
16832 16841 1
16833 16835 1
16833 16836 1
16833 16840 1
16834 16839 1
16834 16840 1
16835 16837 1
16835 16838 1
16836 16841 1
16837 16839 1
16837 16840 1
16839 16841 1
16844 16847 1
16844 16848 1
16844 16852 1
16844 16855 1
16845 16849 1
16845 16850 1
16845 16853 1
16846 16851 1
16846 16852 1
16846 16855 1
16847 16849 1
16847 16850 1
16847 16854 1
16848 16853 1
16848 16854 1
16849 16851 1
16849 16852 1
16850 16855 1
16851 16853 1
16851 16854 1
16853 16855 1
16858 16861 1
16858 16862 1
16858 16866 1
16858 16869 1
16859 16863 1
16859 16864 1
16859 16867 1
16860 16865 1
16860 16866 1
16860 16869 1
16861 16863 1
16861 16864 1
16861 16868 1
16862 16867 1
16862 16868 1
16863 16865 1
16863 16866 1
16864 16869 1
16865 16867 1
16865 16868 1
16867 16869 1
16872 16875 1
16872 16876 1
16872 16880 1
16872 16883 1
16873 16877 1
16873 16878 1
16873 16881 1
16874 16879 1
16874 16880 1
16874 16883 1
16875 16877 1
16875 16878 1
16875 16882 1
16876 16881 1
16876 16882 1
16877 16879 1
16877 16880 1
16878 16883 1
16879 16881 1
16879 16882 1
16881 16883 1
16886 16889 1
16886 16890 1
16886 16894 1
16886 16897 1
16887 16891 1
16887 16892 1
16887 16895 1
16888 16893 1
16888 16894 1
16888 16897 1
16889 16891 1
16889 16892 1
16889 16896 1
16890 16895 1
16890 16896 1
16891 16893 1
16891 16894 1
16892 16897 1
16893 16895 1
16893 16896 1
16895 16897 1
16900 16903 1
16900 16904 1
16900 16908 1
16900 16911 1
16901 16905 1
16901 16906 1
16901 16909 1
16902 16907 1
16902 16908 1
16902 16911 1
16903 16905 1
16903 16906 1
16903 16910 1
16904 16909 1
16904 16910 1
16905 16907 1
16905 16908 1
16906 16911 1
16907 16909 1
16907 16910 1
16909 16911 1
16914 16917 1
16914 16918 1
16914 16922 1
16914 16925 1
16915 16919 1
16915 16920 1
16915 16923 1
16916 16921 1
16916 16922 1
16916 16925 1
16917 16919 1
16917 16920 1
16917 16924 1
16918 16923 1
16918 16924 1
16919 16921 1
16919 16922 1
16920 16925 1
16921 16923 1
16921 16924 1
16923 16925 1
16928 16931 1
16928 16932 1
16928 16936 1
16928 16939 1
16929 16933 1
16929 16934 1
16929 16937 1
16930 16935 1
16930 16936 1
16930 16939 1
16931 16933 1
16931 16934 1
16931 16938 1
16932 16937 1
16932 16938 1
16933 16935 1
16933 16936 1
16934 16939 1
16935 16937 1
16935 16938 1
16937 16939 1
16942 16945 1
16942 16946 1
16942 16950 1
16942 16953 1
16943 16947 1
16943 16948 1
16943 16951 1
16944 16949 1
16944 16950 1
16944 16953 1
16945 16947 1
16945 16948 1
16945 16952 1
16946 16951 1
16946 16952 1
16947 16949 1
16947 16950 1
16948 16953 1
16949 16951 1
16949 16952 1
16951 16953 1
16956 16959 1
16956 16960 1
16956 16964 1
16956 16967 1
16957 16961 1
16957 16962 1
16957 16965 1
16958 16963 1
16958 16964 1
16958 16967 1
16959 16961 1
16959 16962 1
16959 16966 1
16960 16965 1
16960 16966 1
16961 16963 1
16961 16964 1
16962 16967 1
16963 16965 1
16963 16966 1
16965 16967 1
16970 16973 1
16970 16974 1
16970 16978 1
16970 16981 1
16971 16975 1
16971 16976 1
16971 16979 1
16972 16977 1
16972 16978 1
16972 16981 1
16973 16975 1
16973 16976 1
16973 16980 1
16974 16979 1
16974 16980 1
16975 16977 1
16975 16978 1
16976 16981 1
16977 16979 1
16977 16980 1
16979 16981 1
16984 16987 1
16984 16988 1
16984 16992 1
16984 16995 1
16985 16989 1
16985 16990 1
16985 16993 1
16986 16991 1
16986 16992 1
16986 16995 1
16987 16989 1
16987 16990 1
16987 16994 1
16988 16993 1
16988 16994 1
16989 16991 1
16989 16992 1
16990 16995 1
16991 16993 1
16991 16994 1
16993 16995 1
16998 17001 1
16998 17002 1
16998 17006 1
16998 17009 1
16999 17003 1
16999 17004 1
16999 17007 1
17000 17005 1
17000 17006 1
17000 17009 1
17001 17003 1
17001 17004 1
17001 17008 1
17002 17007 1
17002 17008 1
17003 17005 1
17003 17006 1
17004 17009 1
17005 17007 1
17005 17008 1
17007 17009 1
17012 17015 1
17012 17016 1
17012 17020 1
17012 17023 1
17013 17017 1
17013 17018 1
17013 17021 1
17014 17019 1
17014 17020 1
17014 17023 1
17015 17017 1
17015 17018 1
17015 17022 1
17016 17021 1
17016 17022 1
17017 17019 1
17017 17020 1
17018 17023 1
17019 17021 1
17019 17022 1
17021 17023 1
17026 17029 1
17026 17030 1
17026 17034 1
17026 17037 1
17027 17031 1
17027 17032 1
17027 17035 1
17028 17033 1
17028 17034 1
17028 17037 1
17029 17031 1
17029 17032 1
17029 17036 1
17030 17035 1
17030 17036 1
17031 17033 1
17031 17034 1
17032 17037 1
17033 17035 1
17033 17036 1
17035 17037 1
17040 17043 1
17040 17044 1
17040 17048 1
17040 17051 1
17041 17045 1
17041 17046 1
17041 17049 1
17042 17047 1
17042 17048 1
17042 17051 1
17043 17045 1
17043 17046 1
17043 17050 1
17044 17049 1
17044 17050 1
17045 17047 1
17045 17048 1
17046 17051 1
17047 17049 1
17047 17050 1
17049 17051 1
17054 17057 1
17054 17058 1
17054 17062 1
17054 17065 1
17055 17059 1
17055 17060 1
17055 17063 1
17056 17061 1
17056 17062 1
17056 17065 1
17057 17059 1
17057 17060 1
17057 17064 1
17058 17063 1
17058 17064 1
17059 17061 1
17059 17062 1
17060 17065 1
17061 17063 1
17061 17064 1
17063 17065 1
17068 17071 1
17068 17072 1
17068 17076 1
17068 17079 1
17069 17073 1
17069 17074 1
17069 17077 1
17070 17075 1
17070 17076 1
17070 17079 1
17071 17073 1
17071 17074 1
17071 17078 1
17072 17077 1
17072 17078 1
17073 17075 1
17073 17076 1
17074 17079 1
17075 17077 1
17075 17078 1
17077 17079 1
17082 17085 1
17082 17086 1
17082 17090 1
17082 17093 1
17083 17087 1
17083 17088 1
17083 17091 1
17084 17089 1
17084 17090 1
17084 17093 1
17085 17087 1
17085 17088 1
17085 17092 1
17086 17091 1
17086 17092 1
17087 17089 1
17087 17090 1
17088 17093 1
17089 17091 1
17089 17092 1
17091 17093 1
17096 17099 1
17096 17100 1
17096 17104 1
17096 17107 1
17097 17101 1
17097 17102 1
17097 17105 1
17098 17103 1
17098 17104 1
17098 17107 1
17099 17101 1
17099 17102 1
17099 17106 1
17100 17105 1
17100 17106 1
17101 17103 1
17101 17104 1
17102 17107 1
17103 17105 1
17103 17106 1
17105 17107 1
17110 17113 1
17110 17114 1
17110 17118 1
17110 17121 1
17111 17115 1
17111 17116 1
17111 17119 1
17112 17117 1
17112 17118 1
17112 17121 1
17113 17115 1
17113 17116 1
17113 17120 1
17114 17119 1
17114 17120 1
17115 17117 1
17115 17118 1
17116 17121 1
17117 17119 1
17117 17120 1
17119 17121 1
17124 17127 1
17124 17128 1
17124 17132 1
17124 17135 1
17125 17129 1
17125 17130 1
17125 17133 1
17126 17131 1
17126 17132 1
17126 17135 1
17127 17129 1
17127 17130 1
17127 17134 1
17128 17133 1
17128 17134 1
17129 17131 1
17129 17132 1
17130 17135 1
17131 17133 1
17131 17134 1
17133 17135 1
17138 17141 1
17138 17142 1
17138 17146 1
17138 17149 1
17139 17143 1
17139 17144 1
17139 17147 1
17140 17145 1
17140 17146 1
17140 17149 1
17141 17143 1
17141 17144 1
17141 17148 1
17142 17147 1
17142 17148 1
17143 17145 1
17143 17146 1
17144 17149 1
17145 17147 1
17145 17148 1
17147 17149 1
17152 17155 1
17152 17156 1
17152 17160 1
17152 17163 1
17153 17157 1
17153 17158 1
17153 17161 1
17154 17159 1
17154 17160 1
17154 17163 1
17155 17157 1
17155 17158 1
17155 17162 1
17156 17161 1
17156 17162 1
17157 17159 1
17157 17160 1
17158 17163 1
17159 17161 1
17159 17162 1
17161 17163 1
17166 17169 1
17166 17170 1
17166 17174 1
17166 17177 1
17167 17171 1
17167 17172 1
17167 17175 1
17168 17173 1
17168 17174 1
17168 17177 1
17169 17171 1
17169 17172 1
17169 17176 1
17170 17175 1
17170 17176 1
17171 17173 1
17171 17174 1
17172 17177 1
17173 17175 1
17173 17176 1
17175 17177 1
17180 17183 1
17180 17184 1
17180 17188 1
17180 17191 1
17181 17185 1
17181 17186 1
17181 17189 1
17182 17187 1
17182 17188 1
17182 17191 1
17183 17185 1
17183 17186 1
17183 17190 1
17184 17189 1
17184 17190 1
17185 17187 1
17185 17188 1
17186 17191 1
17187 17189 1
17187 17190 1
17189 17191 1
17194 17197 1
17194 17198 1
17194 17202 1
17194 17205 1
17195 17199 1
17195 17200 1
17195 17203 1
17196 17201 1
17196 17202 1
17196 17205 1
17197 17199 1
17197 17200 1
17197 17204 1
17198 17203 1
17198 17204 1
17199 17201 1
17199 17202 1
17200 17205 1
17201 17203 1
17201 17204 1
17203 17205 1
17208 17211 1
17208 17212 1
17208 17216 1
17208 17219 1
17209 17213 1
17209 17214 1
17209 17217 1
17210 17215 1
17210 17216 1
17210 17219 1
17211 17213 1
17211 17214 1
17211 17218 1
17212 17217 1
17212 17218 1
17213 17215 1
17213 17216 1
17214 17219 1
17215 17217 1
17215 17218 1
17217 17219 1
17222 17225 1
17222 17226 1
17222 17230 1
17222 17233 1
17223 17227 1
17223 17228 1
17223 17231 1
17224 17229 1
17224 17230 1
17224 17233 1
17225 17227 1
17225 17228 1
17225 17232 1
17226 17231 1
17226 17232 1
17227 17229 1
17227 17230 1
17228 17233 1
17229 17231 1
17229 17232 1
17231 17233 1
17236 17239 1
17236 17240 1
17236 17244 1
17236 17247 1
17237 17241 1
17237 17242 1
17237 17245 1
17238 17243 1
17238 17244 1
17238 17247 1
17239 17241 1
17239 17242 1
17239 17246 1
17240 17245 1
17240 17246 1
17241 17243 1
17241 17244 1
17242 17247 1
17243 17245 1
17243 17246 1
17245 17247 1
17250 17253 1
17250 17254 1
17250 17258 1
17250 17261 1
17251 17255 1
17251 17256 1
17251 17259 1
17252 17257 1
17252 17258 1
17252 17261 1
17253 17255 1
17253 17256 1
17253 17260 1
17254 17259 1
17254 17260 1
17255 17257 1
17255 17258 1
17256 17261 1
17257 17259 1
17257 17260 1
17259 17261 1
17264 17267 1
17264 17268 1
17264 17272 1
17264 17275 1
17265 17269 1
17265 17270 1
17265 17273 1
17266 17271 1
17266 17272 1
17266 17275 1
17267 17269 1
17267 17270 1
17267 17274 1
17268 17273 1
17268 17274 1
17269 17271 1
17269 17272 1
17270 17275 1
17271 17273 1
17271 17274 1
17273 17275 1
17278 17281 1
17278 17282 1
17278 17286 1
17278 17289 1
17279 17283 1
17279 17284 1
17279 17287 1
17280 17285 1
17280 17286 1
17280 17289 1
17281 17283 1
17281 17284 1
17281 17288 1
17282 17287 1
17282 17288 1
17283 17285 1
17283 17286 1
17284 17289 1
17285 17287 1
17285 17288 1
17287 17289 1
17292 17295 1
17292 17296 1
17292 17300 1
17292 17303 1
17293 17297 1
17293 17298 1
17293 17301 1
17294 17299 1
17294 17300 1
17294 17303 1
17295 17297 1
17295 17298 1
17295 17302 1
17296 17301 1
17296 17302 1
17297 17299 1
17297 17300 1
17298 17303 1
17299 17301 1
17299 17302 1
17301 17303 1
17306 17309 1
17306 17310 1
17306 17314 1
17306 17317 1
17307 17311 1
17307 17312 1
17307 17315 1
17308 17313 1
17308 17314 1
17308 17317 1
17309 17311 1
17309 17312 1
17309 17316 1
17310 17315 1
17310 17316 1
17311 17313 1
17311 17314 1
17312 17317 1
17313 17315 1
17313 17316 1
17315 17317 1
17320 17323 1
17320 17324 1
17320 17328 1
17320 17331 1
17321 17325 1
17321 17326 1
17321 17329 1
17322 17327 1
17322 17328 1
17322 17331 1
17323 17325 1
17323 17326 1
17323 17330 1
17324 17329 1
17324 17330 1
17325 17327 1
17325 17328 1
17326 17331 1
17327 17329 1
17327 17330 1
17329 17331 1
17334 17337 1
17334 17338 1
17334 17342 1
17334 17345 1
17335 17339 1
17335 17340 1
17335 17343 1
17336 17341 1
17336 17342 1
17336 17345 1
17337 17339 1
17337 17340 1
17337 17344 1
17338 17343 1
17338 17344 1
17339 17341 1
17339 17342 1
17340 17345 1
17341 17343 1
17341 17344 1
17343 17345 1
17348 17351 1
17348 17352 1
17348 17356 1
17348 17359 1
17349 17353 1
17349 17354 1
17349 17357 1
17350 17355 1
17350 17356 1
17350 17359 1
17351 17353 1
17351 17354 1
17351 17358 1
17352 17357 1
17352 17358 1
17353 17355 1
17353 17356 1
17354 17359 1
17355 17357 1
17355 17358 1
17357 17359 1
17362 17365 1
17362 17366 1
17362 17370 1
17362 17373 1
17363 17367 1
17363 17368 1
17363 17371 1
17364 17369 1
17364 17370 1
17364 17373 1
17365 17367 1
17365 17368 1
17365 17372 1
17366 17371 1
17366 17372 1
17367 17369 1
17367 17370 1
17368 17373 1
17369 17371 1
17369 17372 1
17371 17373 1
17376 17379 1
17376 17380 1
17376 17384 1
17376 17387 1
17377 17381 1
17377 17382 1
17377 17385 1
17378 17383 1
17378 17384 1
17378 17387 1
17379 17381 1
17379 17382 1
17379 17386 1
17380 17385 1
17380 17386 1
17381 17383 1
17381 17384 1
17382 17387 1
17383 17385 1
17383 17386 1
17385 17387 1
17390 17393 1
17390 17394 1
17390 17398 1
17390 17401 1
17391 17395 1
17391 17396 1
17391 17399 1
17392 17397 1
17392 17398 1
17392 17401 1
17393 17395 1
17393 17396 1
17393 17400 1
17394 17399 1
17394 17400 1
17395 17397 1
17395 17398 1
17396 17401 1
17397 17399 1
17397 17400 1
17399 17401 1
17404 17407 1
17404 17408 1
17404 17412 1
17404 17415 1
17405 17409 1
17405 17410 1
17405 17413 1
17406 17411 1
17406 17412 1
17406 17415 1
17407 17409 1
17407 17410 1
17407 17414 1
17408 17413 1
17408 17414 1
17409 17411 1
17409 17412 1
17410 17415 1
17411 17413 1
17411 17414 1
17413 17415 1
17418 17421 1
17418 17422 1
17418 17426 1
17418 17429 1
17419 17423 1
17419 17424 1
17419 17427 1
17420 17425 1
17420 17426 1
17420 17429 1
17421 17423 1
17421 17424 1
17421 17428 1
17422 17427 1
17422 17428 1
17423 17425 1
17423 17426 1
17424 17429 1
17425 17427 1
17425 17428 1
17427 17429 1
17432 17435 1
17432 17436 1
17432 17440 1
17432 17443 1
17433 17437 1
17433 17438 1
17433 17441 1
17434 17439 1
17434 17440 1
17434 17443 1
17435 17437 1
17435 17438 1
17435 17442 1
17436 17441 1
17436 17442 1
17437 17439 1
17437 17440 1
17438 17443 1
17439 17441 1
17439 17442 1
17441 17443 1
17446 17449 1
17446 17450 1
17446 17454 1
17446 17457 1
17447 17451 1
17447 17452 1
17447 17455 1
17448 17453 1
17448 17454 1
17448 17457 1
17449 17451 1
17449 17452 1
17449 17456 1
17450 17455 1
17450 17456 1
17451 17453 1
17451 17454 1
17452 17457 1
17453 17455 1
17453 17456 1
17455 17457 1
17460 17463 1
17460 17464 1
17460 17468 1
17460 17471 1
17461 17465 1
17461 17466 1
17461 17469 1
17462 17467 1
17462 17468 1
17462 17471 1
17463 17465 1
17463 17466 1
17463 17470 1
17464 17469 1
17464 17470 1
17465 17467 1
17465 17468 1
17466 17471 1
17467 17469 1
17467 17470 1
17469 17471 1
17474 17477 1
17474 17478 1
17474 17482 1
17474 17485 1
17475 17479 1
17475 17480 1
17475 17483 1
17476 17481 1
17476 17482 1
17476 17485 1
17477 17479 1
17477 17480 1
17477 17484 1
17478 17483 1
17478 17484 1
17479 17481 1
17479 17482 1
17480 17485 1
17481 17483 1
17481 17484 1
17483 17485 1
17488 17491 1
17488 17492 1
17488 17496 1
17488 17499 1
17489 17493 1
17489 17494 1
17489 17497 1
17490 17495 1
17490 17496 1
17490 17499 1
17491 17493 1
17491 17494 1
17491 17498 1
17492 17497 1
17492 17498 1
17493 17495 1
17493 17496 1
17494 17499 1
17495 17497 1
17495 17498 1
17497 17499 1
17502 17505 1
17502 17506 1
17502 17510 1
17502 17513 1
17503 17507 1
17503 17508 1
17503 17511 1
17504 17509 1
17504 17510 1
17504 17513 1
17505 17507 1
17505 17508 1
17505 17512 1
17506 17511 1
17506 17512 1
17507 17509 1
17507 17510 1
17508 17513 1
17509 17511 1
17509 17512 1
17511 17513 1
17516 17519 1
17516 17520 1
17516 17524 1
17516 17527 1
17517 17521 1
17517 17522 1
17517 17525 1
17518 17523 1
17518 17524 1
17518 17527 1
17519 17521 1
17519 17522 1
17519 17526 1
17520 17525 1
17520 17526 1
17521 17523 1
17521 17524 1
17522 17527 1
17523 17525 1
17523 17526 1
17525 17527 1
17530 17533 1
17530 17534 1
17530 17538 1
17530 17541 1
17531 17535 1
17531 17536 1
17531 17539 1
17532 17537 1
17532 17538 1
17532 17541 1
17533 17535 1
17533 17536 1
17533 17540 1
17534 17539 1
17534 17540 1
17535 17537 1
17535 17538 1
17536 17541 1
17537 17539 1
17537 17540 1
17539 17541 1
17544 17547 1
17544 17548 1
17544 17552 1
17544 17555 1
17545 17549 1
17545 17550 1
17545 17553 1
17546 17551 1
17546 17552 1
17546 17555 1
17547 17549 1
17547 17550 1
17547 17554 1
17548 17553 1
17548 17554 1
17549 17551 1
17549 17552 1
17550 17555 1
17551 17553 1
17551 17554 1
17553 17555 1
17558 17561 1
17558 17562 1
17558 17566 1
17558 17569 1
17559 17563 1
17559 17564 1
17559 17567 1
17560 17565 1
17560 17566 1
17560 17569 1
17561 17563 1
17561 17564 1
17561 17568 1
17562 17567 1
17562 17568 1
17563 17565 1
17563 17566 1
17564 17569 1
17565 17567 1
17565 17568 1
17567 17569 1
17572 17575 1
17572 17576 1
17572 17580 1
17572 17583 1
17573 17577 1
17573 17578 1
17573 17581 1
17574 17579 1
17574 17580 1
17574 17583 1
17575 17577 1
17575 17578 1
17575 17582 1
17576 17581 1
17576 17582 1
17577 17579 1
17577 17580 1
17578 17583 1
17579 17581 1
17579 17582 1
17581 17583 1
17586 17589 1
17586 17590 1
17586 17594 1
17586 17597 1
17587 17591 1
17587 17592 1
17587 17595 1
17588 17593 1
17588 17594 1
17588 17597 1
17589 17591 1
17589 17592 1
17589 17596 1
17590 17595 1
17590 17596 1
17591 17593 1
17591 17594 1
17592 17597 1
17593 17595 1
17593 17596 1
17595 17597 1
17600 17603 1
17600 17604 1
17600 17608 1
17600 17611 1
17601 17605 1
17601 17606 1
17601 17609 1
17602 17607 1
17602 17608 1
17602 17611 1
17603 17605 1
17603 17606 1
17603 17610 1
17604 17609 1
17604 17610 1
17605 17607 1
17605 17608 1
17606 17611 1
17607 17609 1
17607 17610 1
17609 17611 1
17614 17617 1
17614 17618 1
17614 17622 1
17614 17625 1
17615 17619 1
17615 17620 1
17615 17623 1
17616 17621 1
17616 17622 1
17616 17625 1
17617 17619 1
17617 17620 1
17617 17624 1
17618 17623 1
17618 17624 1
17619 17621 1
17619 17622 1
17620 17625 1
17621 17623 1
17621 17624 1
17623 17625 1
17628 17631 1
17628 17632 1
17628 17636 1
17628 17639 1
17629 17633 1
17629 17634 1
17629 17637 1
17630 17635 1
17630 17636 1
17630 17639 1
17631 17633 1
17631 17634 1
17631 17638 1
17632 17637 1
17632 17638 1
17633 17635 1
17633 17636 1
17634 17639 1
17635 17637 1
17635 17638 1
17637 17639 1
17642 17645 1
17642 17646 1
17642 17650 1
17642 17653 1
17643 17647 1
17643 17648 1
17643 17651 1
17644 17649 1
17644 17650 1
17644 17653 1
17645 17647 1
17645 17648 1
17645 17652 1
17646 17651 1
17646 17652 1
17647 17649 1
17647 17650 1
17648 17653 1
17649 17651 1
17649 17652 1
17651 17653 1
17656 17659 1
17656 17660 1
17656 17664 1
17656 17667 1
17657 17661 1
17657 17662 1
17657 17665 1
17658 17663 1
17658 17664 1
17658 17667 1
17659 17661 1
17659 17662 1
17659 17666 1
17660 17665 1
17660 17666 1
17661 17663 1
17661 17664 1
17662 17667 1
17663 17665 1
17663 17666 1
17665 17667 1
17670 17673 1
17670 17674 1
17670 17678 1
17670 17681 1
17671 17675 1
17671 17676 1
17671 17679 1
17672 17677 1
17672 17678 1
17672 17681 1
17673 17675 1
17673 17676 1
17673 17680 1
17674 17679 1
17674 17680 1
17675 17677 1
17675 17678 1
17676 17681 1
17677 17679 1
17677 17680 1
17679 17681 1
17684 17687 1
17684 17688 1
17684 17692 1
17684 17695 1
17685 17689 1
17685 17690 1
17685 17693 1
17686 17691 1
17686 17692 1
17686 17695 1
17687 17689 1
17687 17690 1
17687 17694 1
17688 17693 1
17688 17694 1
17689 17691 1
17689 17692 1
17690 17695 1
17691 17693 1
17691 17694 1
17693 17695 1
17698 17701 1
17698 17702 1
17698 17706 1
17698 17709 1
17699 17703 1
17699 17704 1
17699 17707 1
17700 17705 1
17700 17706 1
17700 17709 1
17701 17703 1
17701 17704 1
17701 17708 1
17702 17707 1
17702 17708 1
17703 17705 1
17703 17706 1
17704 17709 1
17705 17707 1
17705 17708 1
17707 17709 1
17712 17715 1
17712 17716 1
17712 17720 1
17712 17723 1
17713 17717 1
17713 17718 1
17713 17721 1
17714 17719 1
17714 17720 1
17714 17723 1
17715 17717 1
17715 17718 1
17715 17722 1
17716 17721 1
17716 17722 1
17717 17719 1
17717 17720 1
17718 17723 1
17719 17721 1
17719 17722 1
17721 17723 1
17726 17729 1
17726 17730 1
17726 17734 1
17726 17737 1
17727 17731 1
17727 17732 1
17727 17735 1
17728 17733 1
17728 17734 1
17728 17737 1
17729 17731 1
17729 17732 1
17729 17736 1
17730 17735 1
17730 17736 1
17731 17733 1
17731 17734 1
17732 17737 1
17733 17735 1
17733 17736 1
17735 17737 1
17740 17743 1
17740 17744 1
17740 17748 1
17740 17751 1
17741 17745 1
17741 17746 1
17741 17749 1
17742 17747 1
17742 17748 1
17742 17751 1
17743 17745 1
17743 17746 1
17743 17750 1
17744 17749 1
17744 17750 1
17745 17747 1
17745 17748 1
17746 17751 1
17747 17749 1
17747 17750 1
17749 17751 1
17754 17757 1
17754 17758 1
17754 17762 1
17754 17765 1
17755 17759 1
17755 17760 1
17755 17763 1
17756 17761 1
17756 17762 1
17756 17765 1
17757 17759 1
17757 17760 1
17757 17764 1
17758 17763 1
17758 17764 1
17759 17761 1
17759 17762 1
17760 17765 1
17761 17763 1
17761 17764 1
17763 17765 1
17768 17771 1
17768 17772 1
17768 17776 1
17768 17779 1
17769 17773 1
17769 17774 1
17769 17777 1
17770 17775 1
17770 17776 1
17770 17779 1
17771 17773 1
17771 17774 1
17771 17778 1
17772 17777 1
17772 17778 1
17773 17775 1
17773 17776 1
17774 17779 1
17775 17777 1
17775 17778 1
17777 17779 1
17782 17785 1
17782 17786 1
17782 17790 1
17782 17793 1
17783 17787 1
17783 17788 1
17783 17791 1
17784 17789 1
17784 17790 1
17784 17793 1
17785 17787 1
17785 17788 1
17785 17792 1
17786 17791 1
17786 17792 1
17787 17789 1
17787 17790 1
17788 17793 1
17789 17791 1
17789 17792 1
17791 17793 1
17796 17799 1
17796 17800 1
17796 17804 1
17796 17807 1
17797 17801 1
17797 17802 1
17797 17805 1
17798 17803 1
17798 17804 1
17798 17807 1
17799 17801 1
17799 17802 1
17799 17806 1
17800 17805 1
17800 17806 1
17801 17803 1
17801 17804 1
17802 17807 1
17803 17805 1
17803 17806 1
17805 17807 1
17810 17813 1
17810 17814 1
17810 17818 1
17810 17821 1
17811 17815 1
17811 17816 1
17811 17819 1
17812 17817 1
17812 17818 1
17812 17821 1
17813 17815 1
17813 17816 1
17813 17820 1
17814 17819 1
17814 17820 1
17815 17817 1
17815 17818 1
17816 17821 1
17817 17819 1
17817 17820 1
17819 17821 1
17824 17827 1
17824 17828 1
17824 17832 1
17824 17835 1
17825 17829 1
17825 17830 1
17825 17833 1
17826 17831 1
17826 17832 1
17826 17835 1
17827 17829 1
17827 17830 1
17827 17834 1
17828 17833 1
17828 17834 1
17829 17831 1
17829 17832 1
17830 17835 1
17831 17833 1
17831 17834 1
17833 17835 1
17838 17841 1
17838 17842 1
17838 17846 1
17838 17849 1
17839 17843 1
17839 17844 1
17839 17847 1
17840 17845 1
17840 17846 1
17840 17849 1
17841 17843 1
17841 17844 1
17841 17848 1
17842 17847 1
17842 17848 1
17843 17845 1
17843 17846 1
17844 17849 1
17845 17847 1
17845 17848 1
17847 17849 1
17852 17855 1
17852 17856 1
17852 17860 1
17852 17863 1
17853 17857 1
17853 17858 1
17853 17861 1
17854 17859 1
17854 17860 1
17854 17863 1
17855 17857 1
17855 17858 1
17855 17862 1
17856 17861 1
17856 17862 1
17857 17859 1
17857 17860 1
17858 17863 1
17859 17861 1
17859 17862 1
17861 17863 1
17866 17869 1
17866 17870 1
17866 17874 1
17866 17877 1
17867 17871 1
17867 17872 1
17867 17875 1
17868 17873 1
17868 17874 1
17868 17877 1
17869 17871 1
17869 17872 1
17869 17876 1
17870 17875 1
17870 17876 1
17871 17873 1
17871 17874 1
17872 17877 1
17873 17875 1
17873 17876 1
17875 17877 1
17880 17883 1
17880 17884 1
17880 17888 1
17880 17891 1
17881 17885 1
17881 17886 1
17881 17889 1
17882 17887 1
17882 17888 1
17882 17891 1
17883 17885 1
17883 17886 1
17883 17890 1
17884 17889 1
17884 17890 1
17885 17887 1
17885 17888 1
17886 17891 1
17887 17889 1
17887 17890 1
17889 17891 1
17894 17897 1
17894 17898 1
17894 17902 1
17894 17905 1
17895 17899 1
17895 17900 1
17895 17903 1
17896 17901 1
17896 17902 1
17896 17905 1
17897 17899 1
17897 17900 1
17897 17904 1
17898 17903 1
17898 17904 1
17899 17901 1
17899 17902 1
17900 17905 1
17901 17903 1
17901 17904 1
17903 17905 1
17908 17911 1
17908 17912 1
17908 17916 1
17908 17919 1
17909 17913 1
17909 17914 1
17909 17917 1
17910 17915 1
17910 17916 1
17910 17919 1
17911 17913 1
17911 17914 1
17911 17918 1
17912 17917 1
17912 17918 1
17913 17915 1
17913 17916 1
17914 17919 1
17915 17917 1
17915 17918 1
17917 17919 1
17922 17925 1
17922 17926 1
17922 17930 1
17922 17933 1
17923 17927 1
17923 17928 1
17923 17931 1
17924 17929 1
17924 17930 1
17924 17933 1
17925 17927 1
17925 17928 1
17925 17932 1
17926 17931 1
17926 17932 1
17927 17929 1
17927 17930 1
17928 17933 1
17929 17931 1
17929 17932 1
17931 17933 1
17936 17939 1
17936 17940 1
17936 17944 1
17936 17947 1
17937 17941 1
17937 17942 1
17937 17945 1
17938 17943 1
17938 17944 1
17938 17947 1
17939 17941 1
17939 17942 1
17939 17946 1
17940 17945 1
17940 17946 1
17941 17943 1
17941 17944 1
17942 17947 1
17943 17945 1
17943 17946 1
17945 17947 1
17950 17953 1
17950 17954 1
17950 17958 1
17950 17961 1
17951 17955 1
17951 17956 1
17951 17959 1
17952 17957 1
17952 17958 1
17952 17961 1
17953 17955 1
17953 17956 1
17953 17960 1
17954 17959 1
17954 17960 1
17955 17957 1
17955 17958 1
17956 17961 1
17957 17959 1
17957 17960 1
17959 17961 1
17964 17967 1
17964 17968 1
17964 17972 1
17964 17975 1
17965 17969 1
17965 17970 1
17965 17973 1
17966 17971 1
17966 17972 1
17966 17975 1
17967 17969 1
17967 17970 1
17967 17974 1
17968 17973 1
17968 17974 1
17969 17971 1
17969 17972 1
17970 17975 1
17971 17973 1
17971 17974 1
17973 17975 1
17978 17981 1
17978 17982 1
17978 17986 1
17978 17989 1
17979 17983 1
17979 17984 1
17979 17987 1
17980 17985 1
17980 17986 1
17980 17989 1
17981 17983 1
17981 17984 1
17981 17988 1
17982 17987 1
17982 17988 1
17983 17985 1
17983 17986 1
17984 17989 1
17985 17987 1
17985 17988 1
17987 17989 1
17992 17995 1
17992 17996 1
17992 18000 1
17992 18003 1
17993 17997 1
17993 17998 1
17993 18001 1
17994 17999 1
17994 18000 1
17994 18003 1
17995 17997 1
17995 17998 1
17995 18002 1
17996 18001 1
17996 18002 1
17997 17999 1
17997 18000 1
17998 18003 1
17999 18001 1
17999 18002 1
18001 18003 1
18006 18009 1
18006 18010 1
18006 18014 1
18006 18017 1
18007 18011 1
18007 18012 1
18007 18015 1
18008 18013 1
18008 18014 1
18008 18017 1
18009 18011 1
18009 18012 1
18009 18016 1
18010 18015 1
18010 18016 1
18011 18013 1
18011 18014 1
18012 18017 1
18013 18015 1
18013 18016 1
18015 18017 1
18020 18023 1
18020 18024 1
18020 18028 1
18020 18031 1
18021 18025 1
18021 18026 1
18021 18029 1
18022 18027 1
18022 18028 1
18022 18031 1
18023 18025 1
18023 18026 1
18023 18030 1
18024 18029 1
18024 18030 1
18025 18027 1
18025 18028 1
18026 18031 1
18027 18029 1
18027 18030 1
18029 18031 1
18034 18037 1
18034 18038 1
18034 18042 1
18034 18045 1
18035 18039 1
18035 18040 1
18035 18043 1
18036 18041 1
18036 18042 1
18036 18045 1
18037 18039 1
18037 18040 1
18037 18044 1
18038 18043 1
18038 18044 1
18039 18041 1
18039 18042 1
18040 18045 1
18041 18043 1
18041 18044 1
18043 18045 1
18048 18051 1
18048 18052 1
18048 18056 1
18048 18059 1
18049 18053 1
18049 18054 1
18049 18057 1
18050 18055 1
18050 18056 1
18050 18059 1
18051 18053 1
18051 18054 1
18051 18058 1
18052 18057 1
18052 18058 1
18053 18055 1
18053 18056 1
18054 18059 1
18055 18057 1
18055 18058 1
18057 18059 1
18062 18065 1
18062 18066 1
18062 18070 1
18062 18073 1
18063 18067 1
18063 18068 1
18063 18071 1
18064 18069 1
18064 18070 1
18064 18073 1
18065 18067 1
18065 18068 1
18065 18072 1
18066 18071 1
18066 18072 1
18067 18069 1
18067 18070 1
18068 18073 1
18069 18071 1
18069 18072 1
18071 18073 1
18076 18079 1
18076 18080 1
18076 18084 1
18076 18087 1
18077 18081 1
18077 18082 1
18077 18085 1
18078 18083 1
18078 18084 1
18078 18087 1
18079 18081 1
18079 18082 1
18079 18086 1
18080 18085 1
18080 18086 1
18081 18083 1
18081 18084 1
18082 18087 1
18083 18085 1
18083 18086 1
18085 18087 1
18090 18093 1
18090 18094 1
18090 18098 1
18090 18101 1
18091 18095 1
18091 18096 1
18091 18099 1
18092 18097 1
18092 18098 1
18092 18101 1
18093 18095 1
18093 18096 1
18093 18100 1
18094 18099 1
18094 18100 1
18095 18097 1
18095 18098 1
18096 18101 1
18097 18099 1
18097 18100 1
18099 18101 1
18104 18107 1
18104 18108 1
18104 18112 1
18104 18115 1
18105 18109 1
18105 18110 1
18105 18113 1
18106 18111 1
18106 18112 1
18106 18115 1
18107 18109 1
18107 18110 1
18107 18114 1
18108 18113 1
18108 18114 1
18109 18111 1
18109 18112 1
18110 18115 1
18111 18113 1
18111 18114 1
18113 18115 1
18118 18121 1
18118 18122 1
18118 18126 1
18118 18129 1
18119 18123 1
18119 18124 1
18119 18127 1
18120 18125 1
18120 18126 1
18120 18129 1
18121 18123 1
18121 18124 1
18121 18128 1
18122 18127 1
18122 18128 1
18123 18125 1
18123 18126 1
18124 18129 1
18125 18127 1
18125 18128 1
18127 18129 1
18132 18135 1
18132 18136 1
18132 18140 1
18132 18143 1
18133 18137 1
18133 18138 1
18133 18141 1
18134 18139 1
18134 18140 1
18134 18143 1
18135 18137 1
18135 18138 1
18135 18142 1
18136 18141 1
18136 18142 1
18137 18139 1
18137 18140 1
18138 18143 1
18139 18141 1
18139 18142 1
18141 18143 1
18146 18149 1
18146 18150 1
18146 18154 1
18146 18157 1
18147 18151 1
18147 18152 1
18147 18155 1
18148 18153 1
18148 18154 1
18148 18157 1
18149 18151 1
18149 18152 1
18149 18156 1
18150 18155 1
18150 18156 1
18151 18153 1
18151 18154 1
18152 18157 1
18153 18155 1
18153 18156 1
18155 18157 1
18160 18163 1
18160 18164 1
18160 18168 1
18160 18171 1
18161 18165 1
18161 18166 1
18161 18169 1
18162 18167 1
18162 18168 1
18162 18171 1
18163 18165 1
18163 18166 1
18163 18170 1
18164 18169 1
18164 18170 1
18165 18167 1
18165 18168 1
18166 18171 1
18167 18169 1
18167 18170 1
18169 18171 1
18174 18177 1
18174 18178 1
18174 18182 1
18174 18185 1
18175 18179 1
18175 18180 1
18175 18183 1
18176 18181 1
18176 18182 1
18176 18185 1
18177 18179 1
18177 18180 1
18177 18184 1
18178 18183 1
18178 18184 1
18179 18181 1
18179 18182 1
18180 18185 1
18181 18183 1
18181 18184 1
18183 18185 1
18188 18191 1
18188 18192 1
18188 18196 1
18188 18199 1
18189 18193 1
18189 18194 1
18189 18197 1
18190 18195 1
18190 18196 1
18190 18199 1
18191 18193 1
18191 18194 1
18191 18198 1
18192 18197 1
18192 18198 1
18193 18195 1
18193 18196 1
18194 18199 1
18195 18197 1
18195 18198 1
18197 18199 1
18202 18205 1
18202 18206 1
18202 18210 1
18202 18213 1
18203 18207 1
18203 18208 1
18203 18211 1
18204 18209 1
18204 18210 1
18204 18213 1
18205 18207 1
18205 18208 1
18205 18212 1
18206 18211 1
18206 18212 1
18207 18209 1
18207 18210 1
18208 18213 1
18209 18211 1
18209 18212 1
18211 18213 1
18216 18219 1
18216 18220 1
18216 18224 1
18216 18227 1
18217 18221 1
18217 18222 1
18217 18225 1
18218 18223 1
18218 18224 1
18218 18227 1
18219 18221 1
18219 18222 1
18219 18226 1
18220 18225 1
18220 18226 1
18221 18223 1
18221 18224 1
18222 18227 1
18223 18225 1
18223 18226 1
18225 18227 1
18230 18233 1
18230 18234 1
18230 18238 1
18230 18241 1
18231 18235 1
18231 18236 1
18231 18239 1
18232 18237 1
18232 18238 1
18232 18241 1
18233 18235 1
18233 18236 1
18233 18240 1
18234 18239 1
18234 18240 1
18235 18237 1
18235 18238 1
18236 18241 1
18237 18239 1
18237 18240 1
18239 18241 1
18244 18247 1
18244 18248 1
18244 18252 1
18244 18255 1
18245 18249 1
18245 18250 1
18245 18253 1
18246 18251 1
18246 18252 1
18246 18255 1
18247 18249 1
18247 18250 1
18247 18254 1
18248 18253 1
18248 18254 1
18249 18251 1
18249 18252 1
18250 18255 1
18251 18253 1
18251 18254 1
18253 18255 1
18258 18261 1
18258 18262 1
18258 18266 1
18258 18269 1
18259 18263 1
18259 18264 1
18259 18267 1
18260 18265 1
18260 18266 1
18260 18269 1
18261 18263 1
18261 18264 1
18261 18268 1
18262 18267 1
18262 18268 1
18263 18265 1
18263 18266 1
18264 18269 1
18265 18267 1
18265 18268 1
18267 18269 1
18272 18275 1
18272 18276 1
18272 18280 1
18272 18283 1
18273 18277 1
18273 18278 1
18273 18281 1
18274 18279 1
18274 18280 1
18274 18283 1
18275 18277 1
18275 18278 1
18275 18282 1
18276 18281 1
18276 18282 1
18277 18279 1
18277 18280 1
18278 18283 1
18279 18281 1
18279 18282 1
18281 18283 1
18286 18289 1
18286 18290 1
18286 18294 1
18286 18297 1
18287 18291 1
18287 18292 1
18287 18295 1
18288 18293 1
18288 18294 1
18288 18297 1
18289 18291 1
18289 18292 1
18289 18296 1
18290 18295 1
18290 18296 1
18291 18293 1
18291 18294 1
18292 18297 1
18293 18295 1
18293 18296 1
18295 18297 1
18300 18303 1
18300 18304 1
18300 18308 1
18300 18311 1
18301 18305 1
18301 18306 1
18301 18309 1
18302 18307 1
18302 18308 1
18302 18311 1
18303 18305 1
18303 18306 1
18303 18310 1
18304 18309 1
18304 18310 1
18305 18307 1
18305 18308 1
18306 18311 1
18307 18309 1
18307 18310 1
18309 18311 1
18314 18317 1
18314 18318 1
18314 18322 1
18314 18325 1
18315 18319 1
18315 18320 1
18315 18323 1
18316 18321 1
18316 18322 1
18316 18325 1
18317 18319 1
18317 18320 1
18317 18324 1
18318 18323 1
18318 18324 1
18319 18321 1
18319 18322 1
18320 18325 1
18321 18323 1
18321 18324 1
18323 18325 1
18328 18331 1
18328 18332 1
18328 18336 1
18328 18339 1
18329 18333 1
18329 18334 1
18329 18337 1
18330 18335 1
18330 18336 1
18330 18339 1
18331 18333 1
18331 18334 1
18331 18338 1
18332 18337 1
18332 18338 1
18333 18335 1
18333 18336 1
18334 18339 1
18335 18337 1
18335 18338 1
18337 18339 1
18342 18345 1
18342 18346 1
18342 18350 1
18342 18353 1
18343 18347 1
18343 18348 1
18343 18351 1
18344 18349 1
18344 18350 1
18344 18353 1
18345 18347 1
18345 18348 1
18345 18352 1
18346 18351 1
18346 18352 1
18347 18349 1
18347 18350 1
18348 18353 1
18349 18351 1
18349 18352 1
18351 18353 1
18354 18357 1
18354 18358 1
18354 18362 1
18354 18365 1
18355 18359 1
18355 18360 1
18355 18363 1
18356 18361 1
18356 18362 1
18356 18365 1
18357 18359 1
18357 18360 1
18357 18364 1
18358 18363 1
18358 18364 1
18359 18361 1
18359 18362 1
18360 18365 1
18361 18363 1
18361 18364 1
18363 18365 1
18366 18369 1
18366 18370 1
18366 18374 1
18366 18377 1
18367 18371 1
18367 18372 1
18367 18375 1
18368 18373 1
18368 18374 1
18368 18377 1
18369 18371 1
18369 18372 1
18369 18376 1
18370 18375 1
18370 18376 1
18371 18373 1
18371 18374 1
18372 18377 1
18373 18375 1
18373 18376 1
18375 18377 1
18378 18381 1
18378 18382 1
18378 18386 1
18378 18389 1
18379 18383 1
18379 18384 1
18379 18387 1
18380 18385 1
18380 18386 1
18380 18389 1
18381 18383 1
18381 18384 1
18381 18388 1
18382 18387 1
18382 18388 1
18383 18385 1
18383 18386 1
18384 18389 1
18385 18387 1
18385 18388 1
18387 18389 1
18390 18393 1
18390 18394 1
18390 18398 1
18390 18401 1
18391 18395 1
18391 18396 1
18391 18399 1
18392 18397 1
18392 18398 1
18392 18401 1
18393 18395 1
18393 18396 1
18393 18400 1
18394 18399 1
18394 18400 1
18395 18397 1
18395 18398 1
18396 18401 1
18397 18399 1
18397 18400 1
18399 18401 1
18402 18405 1
18402 18406 1
18402 18410 1
18402 18413 1
18403 18407 1
18403 18408 1
18403 18411 1
18404 18409 1
18404 18410 1
18404 18413 1
18405 18407 1
18405 18408 1
18405 18412 1
18406 18411 1
18406 18412 1
18407 18409 1
18407 18410 1
18408 18413 1
18409 18411 1
18409 18412 1
18411 18413 1
18414 18417 1
18414 18418 1
18414 18422 1
18414 18425 1
18415 18419 1
18415 18420 1
18415 18423 1
18416 18421 1
18416 18422 1
18416 18425 1
18417 18419 1
18417 18420 1
18417 18424 1
18418 18423 1
18418 18424 1
18419 18421 1
18419 18422 1
18420 18425 1
18421 18423 1
18421 18424 1
18423 18425 1
18426 18429 1
18426 18430 1
18426 18434 1
18426 18437 1
18427 18431 1
18427 18432 1
18427 18435 1
18428 18433 1
18428 18434 1
18428 18437 1
18429 18431 1
18429 18432 1
18429 18436 1
18430 18435 1
18430 18436 1
18431 18433 1
18431 18434 1
18432 18437 1
18433 18435 1
18433 18436 1
18435 18437 1
18438 18441 1
18438 18442 1
18438 18446 1
18438 18449 1
18439 18443 1
18439 18444 1
18439 18447 1
18440 18445 1
18440 18446 1
18440 18449 1
18441 18443 1
18441 18444 1
18441 18448 1
18442 18447 1
18442 18448 1
18443 18445 1
18443 18446 1
18444 18449 1
18445 18447 1
18445 18448 1
18447 18449 1
18450 18453 1
18450 18454 1
18450 18458 1
18450 18461 1
18451 18455 1
18451 18456 1
18451 18459 1
18452 18457 1
18452 18458 1
18452 18461 1
18453 18455 1
18453 18456 1
18453 18460 1
18454 18459 1
18454 18460 1
18455 18457 1
18455 18458 1
18456 18461 1
18457 18459 1
18457 18460 1
18459 18461 1
18462 18465 1
18462 18466 1
18462 18470 1
18462 18473 1
18463 18467 1
18463 18468 1
18463 18471 1
18464 18469 1
18464 18470 1
18464 18473 1
18465 18467 1
18465 18468 1
18465 18472 1
18466 18471 1
18466 18472 1
18467 18469 1
18467 18470 1
18468 18473 1
18469 18471 1
18469 18472 1
18471 18473 1
18474 18477 1
18474 18478 1
18474 18482 1
18474 18485 1
18475 18479 1
18475 18480 1
18475 18483 1
18476 18481 1
18476 18482 1
18476 18485 1
18477 18479 1
18477 18480 1
18477 18484 1
18478 18483 1
18478 18484 1
18479 18481 1
18479 18482 1
18480 18485 1
18481 18483 1
18481 18484 1
18483 18485 1
18486 18489 1
18486 18490 1
18486 18494 1
18486 18497 1
18487 18491 1
18487 18492 1
18487 18495 1
18488 18493 1
18488 18494 1
18488 18497 1
18489 18491 1
18489 18492 1
18489 18496 1
18490 18495 1
18490 18496 1
18491 18493 1
18491 18494 1
18492 18497 1
18493 18495 1
18493 18496 1
18495 18497 1
18498 18501 1
18498 18502 1
18498 18506 1
18498 18509 1
18499 18503 1
18499 18504 1
18499 18507 1
18500 18505 1
18500 18506 1
18500 18509 1
18501 18503 1
18501 18504 1
18501 18508 1
18502 18507 1
18502 18508 1
18503 18505 1
18503 18506 1
18504 18509 1
18505 18507 1
18505 18508 1
18507 18509 1
18510 18513 1
18510 18514 1
18510 18518 1
18510 18521 1
18511 18515 1
18511 18516 1
18511 18519 1
18512 18517 1
18512 18518 1
18512 18521 1
18513 18515 1
18513 18516 1
18513 18520 1
18514 18519 1
18514 18520 1
18515 18517 1
18515 18518 1
18516 18521 1
18517 18519 1
18517 18520 1
18519 18521 1
18522 18525 1
18522 18526 1
18522 18530 1
18522 18533 1
18523 18527 1
18523 18528 1
18523 18531 1
18524 18529 1
18524 18530 1
18524 18533 1
18525 18527 1
18525 18528 1
18525 18532 1
18526 18531 1
18526 18532 1
18527 18529 1
18527 18530 1
18528 18533 1
18529 18531 1
18529 18532 1
18531 18533 1
18534 18537 1
18534 18538 1
18534 18542 1
18534 18545 1
18535 18539 1
18535 18540 1
18535 18543 1
18536 18541 1
18536 18542 1
18536 18545 1
18537 18539 1
18537 18540 1
18537 18544 1
18538 18543 1
18538 18544 1
18539 18541 1
18539 18542 1
18540 18545 1
18541 18543 1
18541 18544 1
18543 18545 1
18546 18549 1
18546 18550 1
18546 18554 1
18546 18557 1
18547 18551 1
18547 18552 1
18547 18555 1
18548 18553 1
18548 18554 1
18548 18557 1
18549 18551 1
18549 18552 1
18549 18556 1
18550 18555 1
18550 18556 1
18551 18553 1
18551 18554 1
18552 18557 1
18553 18555 1
18553 18556 1
18555 18557 1
18558 18561 1
18558 18562 1
18558 18566 1
18558 18569 1
18559 18563 1
18559 18564 1
18559 18567 1
18560 18565 1
18560 18566 1
18560 18569 1
18561 18563 1
18561 18564 1
18561 18568 1
18562 18567 1
18562 18568 1
18563 18565 1
18563 18566 1
18564 18569 1
18565 18567 1
18565 18568 1
18567 18569 1
18570 18573 1
18570 18574 1
18570 18578 1
18570 18581 1
18571 18575 1
18571 18576 1
18571 18579 1
18572 18577 1
18572 18578 1
18572 18581 1
18573 18575 1
18573 18576 1
18573 18580 1
18574 18579 1
18574 18580 1
18575 18577 1
18575 18578 1
18576 18581 1
18577 18579 1
18577 18580 1
18579 18581 1
18582 18585 1
18582 18586 1
18582 18590 1
18582 18593 1
18583 18587 1
18583 18588 1
18583 18591 1
18584 18589 1
18584 18590 1
18584 18593 1
18585 18587 1
18585 18588 1
18585 18592 1
18586 18591 1
18586 18592 1
18587 18589 1
18587 18590 1
18588 18593 1
18589 18591 1
18589 18592 1
18591 18593 1
18594 18597 1
18594 18598 1
18594 18602 1
18594 18605 1
18595 18599 1
18595 18600 1
18595 18603 1
18596 18601 1
18596 18602 1
18596 18605 1
18597 18599 1
18597 18600 1
18597 18604 1
18598 18603 1
18598 18604 1
18599 18601 1
18599 18602 1
18600 18605 1
18601 18603 1
18601 18604 1
18603 18605 1
18606 18609 1
18606 18610 1
18606 18614 1
18606 18617 1
18607 18611 1
18607 18612 1
18607 18615 1
18608 18613 1
18608 18614 1
18608 18617 1
18609 18611 1
18609 18612 1
18609 18616 1
18610 18615 1
18610 18616 1
18611 18613 1
18611 18614 1
18612 18617 1
18613 18615 1
18613 18616 1
18615 18617 1
18618 18621 1
18618 18622 1
18618 18626 1
18618 18629 1
18619 18623 1
18619 18624 1
18619 18627 1
18620 18625 1
18620 18626 1
18620 18629 1
18621 18623 1
18621 18624 1
18621 18628 1
18622 18627 1
18622 18628 1
18623 18625 1
18623 18626 1
18624 18629 1
18625 18627 1
18625 18628 1
18627 18629 1
18630 18633 1
18630 18634 1
18630 18638 1
18630 18641 1
18631 18635 1
18631 18636 1
18631 18639 1
18632 18637 1
18632 18638 1
18632 18641 1
18633 18635 1
18633 18636 1
18633 18640 1
18634 18639 1
18634 18640 1
18635 18637 1
18635 18638 1
18636 18641 1
18637 18639 1
18637 18640 1
18639 18641 1
18642 18645 1
18642 18646 1
18642 18650 1
18642 18653 1
18643 18647 1
18643 18648 1
18643 18651 1
18644 18649 1
18644 18650 1
18644 18653 1
18645 18647 1
18645 18648 1
18645 18652 1
18646 18651 1
18646 18652 1
18647 18649 1
18647 18650 1
18648 18653 1
18649 18651 1
18649 18652 1
18651 18653 1
18654 18657 1
18654 18658 1
18654 18662 1
18654 18665 1
18655 18659 1
18655 18660 1
18655 18663 1
18656 18661 1
18656 18662 1
18656 18665 1
18657 18659 1
18657 18660 1
18657 18664 1
18658 18663 1
18658 18664 1
18659 18661 1
18659 18662 1
18660 18665 1
18661 18663 1
18661 18664 1
18663 18665 1
18666 18669 1
18666 18670 1
18666 18674 1
18666 18677 1
18667 18671 1
18667 18672 1
18667 18675 1
18668 18673 1
18668 18674 1
18668 18677 1
18669 18671 1
18669 18672 1
18669 18676 1
18670 18675 1
18670 18676 1
18671 18673 1
18671 18674 1
18672 18677 1
18673 18675 1
18673 18676 1
18675 18677 1
18678 18681 1
18678 18682 1
18678 18686 1
18678 18689 1
18679 18683 1
18679 18684 1
18679 18687 1
18680 18685 1
18680 18686 1
18680 18689 1
18681 18683 1
18681 18684 1
18681 18688 1
18682 18687 1
18682 18688 1
18683 18685 1
18683 18686 1
18684 18689 1
18685 18687 1
18685 18688 1
18687 18689 1
18690 18693 1
18690 18694 1
18690 18698 1
18690 18701 1
18691 18695 1
18691 18696 1
18691 18699 1
18692 18697 1
18692 18698 1
18692 18701 1
18693 18695 1
18693 18696 1
18693 18700 1
18694 18699 1
18694 18700 1
18695 18697 1
18695 18698 1
18696 18701 1
18697 18699 1
18697 18700 1
18699 18701 1
18702 18705 1
18702 18706 1
18702 18710 1
18702 18713 1
18703 18707 1
18703 18708 1
18703 18711 1
18704 18709 1
18704 18710 1
18704 18713 1
18705 18707 1
18705 18708 1
18705 18712 1
18706 18711 1
18706 18712 1
18707 18709 1
18707 18710 1
18708 18713 1
18709 18711 1
18709 18712 1
18711 18713 1
18714 18717 1
18714 18718 1
18714 18722 1
18714 18725 1
18715 18719 1
18715 18720 1
18715 18723 1
18716 18721 1
18716 18722 1
18716 18725 1
18717 18719 1
18717 18720 1
18717 18724 1
18718 18723 1
18718 18724 1
18719 18721 1
18719 18722 1
18720 18725 1
18721 18723 1
18721 18724 1
18723 18725 1
18726 18729 1
18726 18730 1
18726 18734 1
18726 18737 1
18727 18731 1
18727 18732 1
18727 18735 1
18728 18733 1
18728 18734 1
18728 18737 1
18729 18731 1
18729 18732 1
18729 18736 1
18730 18735 1
18730 18736 1
18731 18733 1
18731 18734 1
18732 18737 1
18733 18735 1
18733 18736 1
18735 18737 1
18738 18741 1
18738 18742 1
18738 18746 1
18738 18749 1
18739 18743 1
18739 18744 1
18739 18747 1
18740 18745 1
18740 18746 1
18740 18749 1
18741 18743 1
18741 18744 1
18741 18748 1
18742 18747 1
18742 18748 1
18743 18745 1
18743 18746 1
18744 18749 1
18745 18747 1
18745 18748 1
18747 18749 1
18750 18753 1
18750 18754 1
18750 18758 1
18750 18761 1
18751 18755 1
18751 18756 1
18751 18759 1
18752 18757 1
18752 18758 1
18752 18761 1
18753 18755 1
18753 18756 1
18753 18760 1
18754 18759 1
18754 18760 1
18755 18757 1
18755 18758 1
18756 18761 1
18757 18759 1
18757 18760 1
18759 18761 1
18762 18765 1
18762 18766 1
18762 18770 1
18762 18773 1
18763 18767 1
18763 18768 1
18763 18771 1
18764 18769 1
18764 18770 1
18764 18773 1
18765 18767 1
18765 18768 1
18765 18772 1
18766 18771 1
18766 18772 1
18767 18769 1
18767 18770 1
18768 18773 1
18769 18771 1
18769 18772 1
18771 18773 1
18774 18777 1
18774 18778 1
18774 18782 1
18774 18785 1
18775 18779 1
18775 18780 1
18775 18783 1
18776 18781 1
18776 18782 1
18776 18785 1
18777 18779 1
18777 18780 1
18777 18784 1
18778 18783 1
18778 18784 1
18779 18781 1
18779 18782 1
18780 18785 1
18781 18783 1
18781 18784 1
18783 18785 1
18786 18789 1
18786 18790 1
18786 18794 1
18786 18797 1
18787 18791 1
18787 18792 1
18787 18795 1
18788 18793 1
18788 18794 1
18788 18797 1
18789 18791 1
18789 18792 1
18789 18796 1
18790 18795 1
18790 18796 1
18791 18793 1
18791 18794 1
18792 18797 1
18793 18795 1
18793 18796 1
18795 18797 1
18798 18801 1
18798 18802 1
18798 18806 1
18798 18809 1
18799 18803 1
18799 18804 1
18799 18807 1
18800 18805 1
18800 18806 1
18800 18809 1
18801 18803 1
18801 18804 1
18801 18808 1
18802 18807 1
18802 18808 1
18803 18805 1
18803 18806 1
18804 18809 1
18805 18807 1
18805 18808 1
18807 18809 1
18810 18813 1
18810 18814 1
18810 18818 1
18810 18821 1
18811 18815 1
18811 18816 1
18811 18819 1
18812 18817 1
18812 18818 1
18812 18821 1
18813 18815 1
18813 18816 1
18813 18820 1
18814 18819 1
18814 18820 1
18815 18817 1
18815 18818 1
18816 18821 1
18817 18819 1
18817 18820 1
18819 18821 1
18822 18825 1
18822 18826 1
18822 18830 1
18822 18833 1
18823 18827 1
18823 18828 1
18823 18831 1
18824 18829 1
18824 18830 1
18824 18833 1
18825 18827 1
18825 18828 1
18825 18832 1
18826 18831 1
18826 18832 1
18827 18829 1
18827 18830 1
18828 18833 1
18829 18831 1
18829 18832 1
18831 18833 1
18834 18837 1
18834 18838 1
18834 18842 1
18834 18845 1
18835 18839 1
18835 18840 1
18835 18843 1
18836 18841 1
18836 18842 1
18836 18845 1
18837 18839 1
18837 18840 1
18837 18844 1
18838 18843 1
18838 18844 1
18839 18841 1
18839 18842 1
18840 18845 1
18841 18843 1
18841 18844 1
18843 18845 1
18846 18849 1
18846 18850 1
18846 18854 1
18846 18857 1
18847 18851 1
18847 18852 1
18847 18855 1
18848 18853 1
18848 18854 1
18848 18857 1
18849 18851 1
18849 18852 1
18849 18856 1
18850 18855 1
18850 18856 1
18851 18853 1
18851 18854 1
18852 18857 1
18853 18855 1
18853 18856 1
18855 18857 1
18858 18861 1
18858 18862 1
18858 18866 1
18858 18869 1
18859 18863 1
18859 18864 1
18859 18867 1
18860 18865 1
18860 18866 1
18860 18869 1
18861 18863 1
18861 18864 1
18861 18868 1
18862 18867 1
18862 18868 1
18863 18865 1
18863 18866 1
18864 18869 1
18865 18867 1
18865 18868 1
18867 18869 1
18870 18873 1
18870 18874 1
18870 18878 1
18870 18881 1
18871 18875 1
18871 18876 1
18871 18879 1
18872 18877 1
18872 18878 1
18872 18881 1
18873 18875 1
18873 18876 1
18873 18880 1
18874 18879 1
18874 18880 1
18875 18877 1
18875 18878 1
18876 18881 1
18877 18879 1
18877 18880 1
18879 18881 1
18882 18885 1
18882 18886 1
18882 18890 1
18882 18893 1
18883 18887 1
18883 18888 1
18883 18891 1
18884 18889 1
18884 18890 1
18884 18893 1
18885 18887 1
18885 18888 1
18885 18892 1
18886 18891 1
18886 18892 1
18887 18889 1
18887 18890 1
18888 18893 1
18889 18891 1
18889 18892 1
18891 18893 1
18894 18897 1
18894 18898 1
18894 18902 1
18894 18905 1
18895 18899 1
18895 18900 1
18895 18903 1
18896 18901 1
18896 18902 1
18896 18905 1
18897 18899 1
18897 18900 1
18897 18904 1
18898 18903 1
18898 18904 1
18899 18901 1
18899 18902 1
18900 18905 1
18901 18903 1
18901 18904 1
18903 18905 1
18906 18909 1
18906 18910 1
18906 18914 1
18906 18917 1
18907 18911 1
18907 18912 1
18907 18915 1
18908 18913 1
18908 18914 1
18908 18917 1
18909 18911 1
18909 18912 1
18909 18916 1
18910 18915 1
18910 18916 1
18911 18913 1
18911 18914 1
18912 18917 1
18913 18915 1
18913 18916 1
18915 18917 1
18918 18921 1
18918 18922 1
18918 18926 1
18918 18929 1
18919 18923 1
18919 18924 1
18919 18927 1
18920 18925 1
18920 18926 1
18920 18929 1
18921 18923 1
18921 18924 1
18921 18928 1
18922 18927 1
18922 18928 1
18923 18925 1
18923 18926 1
18924 18929 1
18925 18927 1
18925 18928 1
18927 18929 1
18930 18933 1
18930 18934 1
18930 18938 1
18930 18941 1
18931 18935 1
18931 18936 1
18931 18939 1
18932 18937 1
18932 18938 1
18932 18941 1
18933 18935 1
18933 18936 1
18933 18940 1
18934 18939 1
18934 18940 1
18935 18937 1
18935 18938 1
18936 18941 1
18937 18939 1
18937 18940 1
18939 18941 1
18942 18945 1
18942 18946 1
18942 18950 1
18942 18953 1
18943 18947 1
18943 18948 1
18943 18951 1
18944 18949 1
18944 18950 1
18944 18953 1
18945 18947 1
18945 18948 1
18945 18952 1
18946 18951 1
18946 18952 1
18947 18949 1
18947 18950 1
18948 18953 1
18949 18951 1
18949 18952 1
18951 18953 1
18954 18957 1
18954 18958 1
18954 18962 1
18954 18965 1
18955 18959 1
18955 18960 1
18955 18963 1
18956 18961 1
18956 18962 1
18956 18965 1
18957 18959 1
18957 18960 1
18957 18964 1
18958 18963 1
18958 18964 1
18959 18961 1
18959 18962 1
18960 18965 1
18961 18963 1
18961 18964 1
18963 18965 1
18966 18969 1
18966 18970 1
18966 18974 1
18966 18977 1
18967 18971 1
18967 18972 1
18967 18975 1
18968 18973 1
18968 18974 1
18968 18977 1
18969 18971 1
18969 18972 1
18969 18976 1
18970 18975 1
18970 18976 1
18971 18973 1
18971 18974 1
18972 18977 1
18973 18975 1
18973 18976 1
18975 18977 1
18978 18981 1
18978 18982 1
18978 18986 1
18978 18989 1
18979 18983 1
18979 18984 1
18979 18987 1
18980 18985 1
18980 18986 1
18980 18989 1
18981 18983 1
18981 18984 1
18981 18988 1
18982 18987 1
18982 18988 1
18983 18985 1
18983 18986 1
18984 18989 1
18985 18987 1
18985 18988 1
18987 18989 1
18990 18993 1
18990 18994 1
18990 18998 1
18990 19001 1
18991 18995 1
18991 18996 1
18991 18999 1
18992 18997 1
18992 18998 1
18992 19001 1
18993 18995 1
18993 18996 1
18993 19000 1
18994 18999 1
18994 19000 1
18995 18997 1
18995 18998 1
18996 19001 1
18997 18999 1
18997 19000 1
18999 19001 1
19002 19005 1
19002 19006 1
19002 19010 1
19002 19013 1
19003 19007 1
19003 19008 1
19003 19011 1
19004 19009 1
19004 19010 1
19004 19013 1
19005 19007 1
19005 19008 1
19005 19012 1
19006 19011 1
19006 19012 1
19007 19009 1
19007 19010 1
19008 19013 1
19009 19011 1
19009 19012 1
19011 19013 1
19014 19017 1
19014 19018 1
19014 19022 1
19014 19025 1
19015 19019 1
19015 19020 1
19015 19023 1
19016 19021 1
19016 19022 1
19016 19025 1
19017 19019 1
19017 19020 1
19017 19024 1
19018 19023 1
19018 19024 1
19019 19021 1
19019 19022 1
19020 19025 1
19021 19023 1
19021 19024 1
19023 19025 1
19026 19029 1
19026 19030 1
19026 19034 1
19026 19037 1
19027 19031 1
19027 19032 1
19027 19035 1
19028 19033 1
19028 19034 1
19028 19037 1
19029 19031 1
19029 19032 1
19029 19036 1
19030 19035 1
19030 19036 1
19031 19033 1
19031 19034 1
19032 19037 1
19033 19035 1
19033 19036 1
19035 19037 1
19038 19041 1
19038 19042 1
19038 19046 1
19038 19049 1
19039 19043 1
19039 19044 1
19039 19047 1
19040 19045 1
19040 19046 1
19040 19049 1
19041 19043 1
19041 19044 1
19041 19048 1
19042 19047 1
19042 19048 1
19043 19045 1
19043 19046 1
19044 19049 1
19045 19047 1
19045 19048 1
19047 19049 1
19050 19053 1
19050 19054 1
19050 19058 1
19050 19061 1
19051 19055 1
19051 19056 1
19051 19059 1
19052 19057 1
19052 19058 1
19052 19061 1
19053 19055 1
19053 19056 1
19053 19060 1
19054 19059 1
19054 19060 1
19055 19057 1
19055 19058 1
19056 19061 1
19057 19059 1
19057 19060 1
19059 19061 1
19062 19065 1
19062 19066 1
19062 19070 1
19062 19073 1
19063 19067 1
19063 19068 1
19063 19071 1
19064 19069 1
19064 19070 1
19064 19073 1
19065 19067 1
19065 19068 1
19065 19072 1
19066 19071 1
19066 19072 1
19067 19069 1
19067 19070 1
19068 19073 1
19069 19071 1
19069 19072 1
19071 19073 1
19074 19077 1
19074 19078 1
19074 19082 1
19074 19085 1
19075 19079 1
19075 19080 1
19075 19083 1
19076 19081 1
19076 19082 1
19076 19085 1
19077 19079 1
19077 19080 1
19077 19084 1
19078 19083 1
19078 19084 1
19079 19081 1
19079 19082 1
19080 19085 1
19081 19083 1
19081 19084 1
19083 19085 1
19086 19089 1
19086 19090 1
19086 19094 1
19086 19097 1
19087 19091 1
19087 19092 1
19087 19095 1
19088 19093 1
19088 19094 1
19088 19097 1
19089 19091 1
19089 19092 1
19089 19096 1
19090 19095 1
19090 19096 1
19091 19093 1
19091 19094 1
19092 19097 1
19093 19095 1
19093 19096 1
19095 19097 1
19098 19101 1
19098 19102 1
19098 19106 1
19098 19109 1
19099 19103 1
19099 19104 1
19099 19107 1
19100 19105 1
19100 19106 1
19100 19109 1
19101 19103 1
19101 19104 1
19101 19108 1
19102 19107 1
19102 19108 1
19103 19105 1
19103 19106 1
19104 19109 1
19105 19107 1
19105 19108 1
19107 19109 1
19110 19113 1
19110 19114 1
19110 19118 1
19110 19121 1
19111 19115 1
19111 19116 1
19111 19119 1
19112 19117 1
19112 19118 1
19112 19121 1
19113 19115 1
19113 19116 1
19113 19120 1
19114 19119 1
19114 19120 1
19115 19117 1
19115 19118 1
19116 19121 1
19117 19119 1
19117 19120 1
19119 19121 1
19122 19125 1
19122 19126 1
19122 19130 1
19122 19133 1
19123 19127 1
19123 19128 1
19123 19131 1
19124 19129 1
19124 19130 1
19124 19133 1
19125 19127 1
19125 19128 1
19125 19132 1
19126 19131 1
19126 19132 1
19127 19129 1
19127 19130 1
19128 19133 1
19129 19131 1
19129 19132 1
19131 19133 1
19134 19137 1
19134 19138 1
19134 19142 1
19134 19145 1
19135 19139 1
19135 19140 1
19135 19143 1
19136 19141 1
19136 19142 1
19136 19145 1
19137 19139 1
19137 19140 1
19137 19144 1
19138 19143 1
19138 19144 1
19139 19141 1
19139 19142 1
19140 19145 1
19141 19143 1
19141 19144 1
19143 19145 1
19146 19149 1
19146 19150 1
19146 19154 1
19146 19157 1
19147 19151 1
19147 19152 1
19147 19155 1
19148 19153 1
19148 19154 1
19148 19157 1
19149 19151 1
19149 19152 1
19149 19156 1
19150 19155 1
19150 19156 1
19151 19153 1
19151 19154 1
19152 19157 1
19153 19155 1
19153 19156 1
19155 19157 1
19158 19161 1
19158 19162 1
19158 19166 1
19158 19169 1
19159 19163 1
19159 19164 1
19159 19167 1
19160 19165 1
19160 19166 1
19160 19169 1
19161 19163 1
19161 19164 1
19161 19168 1
19162 19167 1
19162 19168 1
19163 19165 1
19163 19166 1
19164 19169 1
19165 19167 1
19165 19168 1
19167 19169 1
19170 19173 1
19170 19174 1
19170 19178 1
19170 19181 1
19171 19175 1
19171 19176 1
19171 19179 1
19172 19177 1
19172 19178 1
19172 19181 1
19173 19175 1
19173 19176 1
19173 19180 1
19174 19179 1
19174 19180 1
19175 19177 1
19175 19178 1
19176 19181 1
19177 19179 1
19177 19180 1
19179 19181 1
19182 19185 1
19182 19186 1
19182 19190 1
19182 19193 1
19183 19187 1
19183 19188 1
19183 19191 1
19184 19189 1
19184 19190 1
19184 19193 1
19185 19187 1
19185 19188 1
19185 19192 1
19186 19191 1
19186 19192 1
19187 19189 1
19187 19190 1
19188 19193 1
19189 19191 1
19189 19192 1
19191 19193 1
19194 19197 1
19194 19198 1
19194 19202 1
19194 19205 1
19195 19199 1
19195 19200 1
19195 19203 1
19196 19201 1
19196 19202 1
19196 19205 1
19197 19199 1
19197 19200 1
19197 19204 1
19198 19203 1
19198 19204 1
19199 19201 1
19199 19202 1
19200 19205 1
19201 19203 1
19201 19204 1
19203 19205 1
19206 19209 1
19206 19210 1
19206 19214 1
19206 19217 1
19207 19211 1
19207 19212 1
19207 19215 1
19208 19213 1
19208 19214 1
19208 19217 1
19209 19211 1
19209 19212 1
19209 19216 1
19210 19215 1
19210 19216 1
19211 19213 1
19211 19214 1
19212 19217 1
19213 19215 1
19213 19216 1
19215 19217 1
19218 19221 1
19218 19222 1
19218 19226 1
19218 19229 1
19219 19223 1
19219 19224 1
19219 19227 1
19220 19225 1
19220 19226 1
19220 19229 1
19221 19223 1
19221 19224 1
19221 19228 1
19222 19227 1
19222 19228 1
19223 19225 1
19223 19226 1
19224 19229 1
19225 19227 1
19225 19228 1
19227 19229 1
19230 19233 1
19230 19234 1
19230 19238 1
19230 19241 1
19231 19235 1
19231 19236 1
19231 19239 1
19232 19237 1
19232 19238 1
19232 19241 1
19233 19235 1
19233 19236 1
19233 19240 1
19234 19239 1
19234 19240 1
19235 19237 1
19235 19238 1
19236 19241 1
19237 19239 1
19237 19240 1
19239 19241 1
19242 19245 1
19242 19246 1
19242 19250 1
19242 19253 1
19243 19247 1
19243 19248 1
19243 19251 1
19244 19249 1
19244 19250 1
19244 19253 1
19245 19247 1
19245 19248 1
19245 19252 1
19246 19251 1
19246 19252 1
19247 19249 1
19247 19250 1
19248 19253 1
19249 19251 1
19249 19252 1
19251 19253 1
19254 19257 1
19254 19258 1
19254 19262 1
19254 19265 1
19255 19259 1
19255 19260 1
19255 19263 1
19256 19261 1
19256 19262 1
19256 19265 1
19257 19259 1
19257 19260 1
19257 19264 1
19258 19263 1
19258 19264 1
19259 19261 1
19259 19262 1
19260 19265 1
19261 19263 1
19261 19264 1
19263 19265 1
19266 19269 1
19266 19270 1
19266 19274 1
19266 19277 1
19267 19271 1
19267 19272 1
19267 19275 1
19268 19273 1
19268 19274 1
19268 19277 1
19269 19271 1
19269 19272 1
19269 19276 1
19270 19275 1
19270 19276 1
19271 19273 1
19271 19274 1
19272 19277 1
19273 19275 1
19273 19276 1
19275 19277 1
19278 19281 1
19278 19282 1
19278 19286 1
19278 19289 1
19279 19283 1
19279 19284 1
19279 19287 1
19280 19285 1
19280 19286 1
19280 19289 1
19281 19283 1
19281 19284 1
19281 19288 1
19282 19287 1
19282 19288 1
19283 19285 1
19283 19286 1
19284 19289 1
19285 19287 1
19285 19288 1
19287 19289 1
19290 19293 1
19290 19294 1
19290 19298 1
19290 19301 1
19291 19295 1
19291 19296 1
19291 19299 1
19292 19297 1
19292 19298 1
19292 19301 1
19293 19295 1
19293 19296 1
19293 19300 1
19294 19299 1
19294 19300 1
19295 19297 1
19295 19298 1
19296 19301 1
19297 19299 1
19297 19300 1
19299 19301 1
19302 19305 1
19302 19306 1
19302 19310 1
19302 19313 1
19303 19307 1
19303 19308 1
19303 19311 1
19304 19309 1
19304 19310 1
19304 19313 1
19305 19307 1
19305 19308 1
19305 19312 1
19306 19311 1
19306 19312 1
19307 19309 1
19307 19310 1
19308 19313 1
19309 19311 1
19309 19312 1
19311 19313 1
19314 19317 1
19314 19318 1
19314 19322 1
19314 19325 1
19315 19319 1
19315 19320 1
19315 19323 1
19316 19321 1
19316 19322 1
19316 19325 1
19317 19319 1
19317 19320 1
19317 19324 1
19318 19323 1
19318 19324 1
19319 19321 1
19319 19322 1
19320 19325 1
19321 19323 1
19321 19324 1
19323 19325 1
19326 19329 1
19326 19330 1
19326 19334 1
19326 19337 1
19327 19331 1
19327 19332 1
19327 19335 1
19328 19333 1
19328 19334 1
19328 19337 1
19329 19331 1
19329 19332 1
19329 19336 1
19330 19335 1
19330 19336 1
19331 19333 1
19331 19334 1
19332 19337 1
19333 19335 1
19333 19336 1
19335 19337 1
19338 19341 1
19338 19342 1
19338 19346 1
19338 19349 1
19339 19343 1
19339 19344 1
19339 19347 1
19340 19345 1
19340 19346 1
19340 19349 1
19341 19343 1
19341 19344 1
19341 19348 1
19342 19347 1
19342 19348 1
19343 19345 1
19343 19346 1
19344 19349 1
19345 19347 1
19345 19348 1
19347 19349 1
19350 19353 1
19350 19354 1
19350 19358 1
19350 19361 1
19351 19355 1
19351 19356 1
19351 19359 1
19352 19357 1
19352 19358 1
19352 19361 1
19353 19355 1
19353 19356 1
19353 19360 1
19354 19359 1
19354 19360 1
19355 19357 1
19355 19358 1
19356 19361 1
19357 19359 1
19357 19360 1
19359 19361 1
19362 19365 1
19362 19366 1
19362 19370 1
19362 19373 1
19363 19367 1
19363 19368 1
19363 19371 1
19364 19369 1
19364 19370 1
19364 19373 1
19365 19367 1
19365 19368 1
19365 19372 1
19366 19371 1
19366 19372 1
19367 19369 1
19367 19370 1
19368 19373 1
19369 19371 1
19369 19372 1
19371 19373 1
19374 19377 1
19374 19378 1
19374 19382 1
19374 19385 1
19375 19379 1
19375 19380 1
19375 19383 1
19376 19381 1
19376 19382 1
19376 19385 1
19377 19379 1
19377 19380 1
19377 19384 1
19378 19383 1
19378 19384 1
19379 19381 1
19379 19382 1
19380 19385 1
19381 19383 1
19381 19384 1
19383 19385 1
19386 19389 1
19386 19390 1
19386 19394 1
19386 19397 1
19387 19391 1
19387 19392 1
19387 19395 1
19388 19393 1
19388 19394 1
19388 19397 1
19389 19391 1
19389 19392 1
19389 19396 1
19390 19395 1
19390 19396 1
19391 19393 1
19391 19394 1
19392 19397 1
19393 19395 1
19393 19396 1
19395 19397 1
19398 19401 1
19398 19402 1
19398 19406 1
19398 19409 1
19399 19403 1
19399 19404 1
19399 19407 1
19400 19405 1
19400 19406 1
19400 19409 1
19401 19403 1
19401 19404 1
19401 19408 1
19402 19407 1
19402 19408 1
19403 19405 1
19403 19406 1
19404 19409 1
19405 19407 1
19405 19408 1
19407 19409 1
19410 19413 1
19410 19414 1
19410 19418 1
19410 19421 1
19411 19415 1
19411 19416 1
19411 19419 1
19412 19417 1
19412 19418 1
19412 19421 1
19413 19415 1
19413 19416 1
19413 19420 1
19414 19419 1
19414 19420 1
19415 19417 1
19415 19418 1
19416 19421 1
19417 19419 1
19417 19420 1
19419 19421 1
19422 19425 1
19422 19426 1
19422 19430 1
19422 19433 1
19423 19427 1
19423 19428 1
19423 19431 1
19424 19429 1
19424 19430 1
19424 19433 1
19425 19427 1
19425 19428 1
19425 19432 1
19426 19431 1
19426 19432 1
19427 19429 1
19427 19430 1
19428 19433 1
19429 19431 1
19429 19432 1
19431 19433 1
19434 19437 1
19434 19438 1
19434 19442 1
19434 19445 1
19435 19439 1
19435 19440 1
19435 19443 1
19436 19441 1
19436 19442 1
19436 19445 1
19437 19439 1
19437 19440 1
19437 19444 1
19438 19443 1
19438 19444 1
19439 19441 1
19439 19442 1
19440 19445 1
19441 19443 1
19441 19444 1
19443 19445 1
19446 19449 1
19446 19450 1
19446 19454 1
19446 19457 1
19447 19451 1
19447 19452 1
19447 19455 1
19448 19453 1
19448 19454 1
19448 19457 1
19449 19451 1
19449 19452 1
19449 19456 1
19450 19455 1
19450 19456 1
19451 19453 1
19451 19454 1
19452 19457 1
19453 19455 1
19453 19456 1
19455 19457 1
19458 19461 1
19458 19462 1
19458 19466 1
19458 19469 1
19459 19463 1
19459 19464 1
19459 19467 1
19460 19465 1
19460 19466 1
19460 19469 1
19461 19463 1
19461 19464 1
19461 19468 1
19462 19467 1
19462 19468 1
19463 19465 1
19463 19466 1
19464 19469 1
19465 19467 1
19465 19468 1
19467 19469 1
19470 19473 1
19470 19474 1
19470 19478 1
19470 19481 1
19471 19475 1
19471 19476 1
19471 19479 1
19472 19477 1
19472 19478 1
19472 19481 1
19473 19475 1
19473 19476 1
19473 19480 1
19474 19479 1
19474 19480 1
19475 19477 1
19475 19478 1
19476 19481 1
19477 19479 1
19477 19480 1
19479 19481 1
19482 19485 1
19482 19486 1
19482 19490 1
19482 19493 1
19483 19487 1
19483 19488 1
19483 19491 1
19484 19489 1
19484 19490 1
19484 19493 1
19485 19487 1
19485 19488 1
19485 19492 1
19486 19491 1
19486 19492 1
19487 19489 1
19487 19490 1
19488 19493 1
19489 19491 1
19489 19492 1
19491 19493 1
19494 19497 1
19494 19498 1
19494 19502 1
19494 19505 1
19495 19499 1
19495 19500 1
19495 19503 1
19496 19501 1
19496 19502 1
19496 19505 1
19497 19499 1
19497 19500 1
19497 19504 1
19498 19503 1
19498 19504 1
19499 19501 1
19499 19502 1
19500 19505 1
19501 19503 1
19501 19504 1
19503 19505 1
19506 19509 1
19506 19510 1
19506 19514 1
19506 19517 1
19507 19511 1
19507 19512 1
19507 19515 1
19508 19513 1
19508 19514 1
19508 19517 1
19509 19511 1
19509 19512 1
19509 19516 1
19510 19515 1
19510 19516 1
19511 19513 1
19511 19514 1
19512 19517 1
19513 19515 1
19513 19516 1
19515 19517 1
19518 19521 1
19518 19522 1
19518 19526 1
19518 19529 1
19519 19523 1
19519 19524 1
19519 19527 1
19520 19525 1
19520 19526 1
19520 19529 1
19521 19523 1
19521 19524 1
19521 19528 1
19522 19527 1
19522 19528 1
19523 19525 1
19523 19526 1
19524 19529 1
19525 19527 1
19525 19528 1
19527 19529 1
19530 19533 1
19530 19534 1
19530 19538 1
19530 19541 1
19531 19535 1
19531 19536 1
19531 19539 1
19532 19537 1
19532 19538 1
19532 19541 1
19533 19535 1
19533 19536 1
19533 19540 1
19534 19539 1
19534 19540 1
19535 19537 1
19535 19538 1
19536 19541 1
19537 19539 1
19537 19540 1
19539 19541 1
19542 19545 1
19542 19546 1
19542 19550 1
19542 19553 1
19543 19547 1
19543 19548 1
19543 19551 1
19544 19549 1
19544 19550 1
19544 19553 1
19545 19547 1
19545 19548 1
19545 19552 1
19546 19551 1
19546 19552 1
19547 19549 1
19547 19550 1
19548 19553 1
19549 19551 1
19549 19552 1
19551 19553 1
19554 19557 1
19554 19558 1
19554 19562 1
19554 19565 1
19555 19559 1
19555 19560 1
19555 19563 1
19556 19561 1
19556 19562 1
19556 19565 1
19557 19559 1
19557 19560 1
19557 19564 1
19558 19563 1
19558 19564 1
19559 19561 1
19559 19562 1
19560 19565 1
19561 19563 1
19561 19564 1
19563 19565 1
19566 19569 1
19566 19570 1
19566 19574 1
19566 19577 1
19567 19571 1
19567 19572 1
19567 19575 1
19568 19573 1
19568 19574 1
19568 19577 1
19569 19571 1
19569 19572 1
19569 19576 1
19570 19575 1
19570 19576 1
19571 19573 1
19571 19574 1
19572 19577 1
19573 19575 1
19573 19576 1
19575 19577 1
19578 19581 1
19578 19582 1
19578 19586 1
19578 19589 1
19579 19583 1
19579 19584 1
19579 19587 1
19580 19585 1
19580 19586 1
19580 19589 1
19581 19583 1
19581 19584 1
19581 19588 1
19582 19587 1
19582 19588 1
19583 19585 1
19583 19586 1
19584 19589 1
19585 19587 1
19585 19588 1
19587 19589 1
19590 19593 1
19590 19594 1
19590 19598 1
19590 19601 1
19591 19595 1
19591 19596 1
19591 19599 1
19592 19597 1
19592 19598 1
19592 19601 1
19593 19595 1
19593 19596 1
19593 19600 1
19594 19599 1
19594 19600 1
19595 19597 1
19595 19598 1
19596 19601 1
19597 19599 1
19597 19600 1
19599 19601 1
19602 19605 1
19602 19606 1
19602 19610 1
19602 19613 1
19603 19607 1
19603 19608 1
19603 19611 1
19604 19609 1
19604 19610 1
19604 19613 1
19605 19607 1
19605 19608 1
19605 19612 1
19606 19611 1
19606 19612 1
19607 19609 1
19607 19610 1
19608 19613 1
19609 19611 1
19609 19612 1
19611 19613 1
19614 19617 1
19614 19618 1
19614 19622 1
19614 19625 1
19615 19619 1
19615 19620 1
19615 19623 1
19616 19621 1
19616 19622 1
19616 19625 1
19617 19619 1
19617 19620 1
19617 19624 1
19618 19623 1
19618 19624 1
19619 19621 1
19619 19622 1
19620 19625 1
19621 19623 1
19621 19624 1
19623 19625 1
19626 19629 1
19626 19630 1
19626 19634 1
19626 19637 1
19627 19631 1
19627 19632 1
19627 19635 1
19628 19633 1
19628 19634 1
19628 19637 1
19629 19631 1
19629 19632 1
19629 19636 1
19630 19635 1
19630 19636 1
19631 19633 1
19631 19634 1
19632 19637 1
19633 19635 1
19633 19636 1
19635 19637 1
19638 19641 1
19638 19642 1
19638 19646 1
19638 19649 1
19639 19643 1
19639 19644 1
19639 19647 1
19640 19645 1
19640 19646 1
19640 19649 1
19641 19643 1
19641 19644 1
19641 19648 1
19642 19647 1
19642 19648 1
19643 19645 1
19643 19646 1
19644 19649 1
19645 19647 1
19645 19648 1
19647 19649 1
19650 19653 1
19650 19654 1
19650 19658 1
19650 19661 1
19651 19655 1
19651 19656 1
19651 19659 1
19652 19657 1
19652 19658 1
19652 19661 1
19653 19655 1
19653 19656 1
19653 19660 1
19654 19659 1
19654 19660 1
19655 19657 1
19655 19658 1
19656 19661 1
19657 19659 1
19657 19660 1
19659 19661 1
19662 19665 1
19662 19666 1
19662 19670 1
19662 19673 1
19663 19667 1
19663 19668 1
19663 19671 1
19664 19669 1
19664 19670 1
19664 19673 1
19665 19667 1
19665 19668 1
19665 19672 1
19666 19671 1
19666 19672 1
19667 19669 1
19667 19670 1
19668 19673 1
19669 19671 1
19669 19672 1
19671 19673 1
19674 19677 1
19674 19678 1
19674 19682 1
19674 19685 1
19675 19679 1
19675 19680 1
19675 19683 1
19676 19681 1
19676 19682 1
19676 19685 1
19677 19679 1
19677 19680 1
19677 19684 1
19678 19683 1
19678 19684 1
19679 19681 1
19679 19682 1
19680 19685 1
19681 19683 1
19681 19684 1
19683 19685 1
19686 19689 1
19686 19690 1
19686 19694 1
19686 19697 1
19687 19691 1
19687 19692 1
19687 19695 1
19688 19693 1
19688 19694 1
19688 19697 1
19689 19691 1
19689 19692 1
19689 19696 1
19690 19695 1
19690 19696 1
19691 19693 1
19691 19694 1
19692 19697 1
19693 19695 1
19693 19696 1
19695 19697 1
19698 19701 1
19698 19702 1
19698 19706 1
19698 19709 1
19699 19703 1
19699 19704 1
19699 19707 1
19700 19705 1
19700 19706 1
19700 19709 1
19701 19703 1
19701 19704 1
19701 19708 1
19702 19707 1
19702 19708 1
19703 19705 1
19703 19706 1
19704 19709 1
19705 19707 1
19705 19708 1
19707 19709 1
19710 19713 1
19710 19714 1
19710 19718 1
19710 19721 1
19711 19715 1
19711 19716 1
19711 19719 1
19712 19717 1
19712 19718 1
19712 19721 1
19713 19715 1
19713 19716 1
19713 19720 1
19714 19719 1
19714 19720 1
19715 19717 1
19715 19718 1
19716 19721 1
19717 19719 1
19717 19720 1
19719 19721 1
19722 19725 1
19722 19726 1
19722 19730 1
19722 19733 1
19723 19727 1
19723 19728 1
19723 19731 1
19724 19729 1
19724 19730 1
19724 19733 1
19725 19727 1
19725 19728 1
19725 19732 1
19726 19731 1
19726 19732 1
19727 19729 1
19727 19730 1
19728 19733 1
19729 19731 1
19729 19732 1
19731 19733 1
19734 19737 1
19734 19738 1
19734 19742 1
19734 19745 1
19735 19739 1
19735 19740 1
19735 19743 1
19736 19741 1
19736 19742 1
19736 19745 1
19737 19739 1
19737 19740 1
19737 19744 1
19738 19743 1
19738 19744 1
19739 19741 1
19739 19742 1
19740 19745 1
19741 19743 1
19741 19744 1
19743 19745 1
19746 19749 1
19746 19750 1
19746 19754 1
19746 19757 1
19747 19751 1
19747 19752 1
19747 19755 1
19748 19753 1
19748 19754 1
19748 19757 1
19749 19751 1
19749 19752 1
19749 19756 1
19750 19755 1
19750 19756 1
19751 19753 1
19751 19754 1
19752 19757 1
19753 19755 1
19753 19756 1
19755 19757 1
19758 19761 1
19758 19762 1
19758 19766 1
19758 19769 1
19759 19763 1
19759 19764 1
19759 19767 1
19760 19765 1
19760 19766 1
19760 19769 1
19761 19763 1
19761 19764 1
19761 19768 1
19762 19767 1
19762 19768 1
19763 19765 1
19763 19766 1
19764 19769 1
19765 19767 1
19765 19768 1
19767 19769 1
19770 19773 1
19770 19774 1
19770 19778 1
19770 19781 1
19771 19775 1
19771 19776 1
19771 19779 1
19772 19777 1
19772 19778 1
19772 19781 1
19773 19775 1
19773 19776 1
19773 19780 1
19774 19779 1
19774 19780 1
19775 19777 1
19775 19778 1
19776 19781 1
19777 19779 1
19777 19780 1
19779 19781 1
19782 19785 1
19782 19786 1
19782 19790 1
19782 19793 1
19783 19787 1
19783 19788 1
19783 19791 1
19784 19789 1
19784 19790 1
19784 19793 1
19785 19787 1
19785 19788 1
19785 19792 1
19786 19791 1
19786 19792 1
19787 19789 1
19787 19790 1
19788 19793 1
19789 19791 1
19789 19792 1
19791 19793 1
19794 19797 1
19794 19798 1
19794 19802 1
19794 19805 1
19795 19799 1
19795 19800 1
19795 19803 1
19796 19801 1
19796 19802 1
19796 19805 1
19797 19799 1
19797 19800 1
19797 19804 1
19798 19803 1
19798 19804 1
19799 19801 1
19799 19802 1
19800 19805 1
19801 19803 1
19801 19804 1
19803 19805 1
19806 19809 1
19806 19810 1
19806 19814 1
19806 19817 1
19807 19811 1
19807 19812 1
19807 19815 1
19808 19813 1
19808 19814 1
19808 19817 1
19809 19811 1
19809 19812 1
19809 19816 1
19810 19815 1
19810 19816 1
19811 19813 1
19811 19814 1
19812 19817 1
19813 19815 1
19813 19816 1
19815 19817 1
19818 19821 1
19818 19822 1
19818 19826 1
19818 19829 1
19819 19823 1
19819 19824 1
19819 19827 1
19820 19825 1
19820 19826 1
19820 19829 1
19821 19823 1
19821 19824 1
19821 19828 1
19822 19827 1
19822 19828 1
19823 19825 1
19823 19826 1
19824 19829 1
19825 19827 1
19825 19828 1
19827 19829 1
19830 19833 1
19830 19834 1
19830 19838 1
19830 19841 1
19831 19835 1
19831 19836 1
19831 19839 1
19832 19837 1
19832 19838 1
19832 19841 1
19833 19835 1
19833 19836 1
19833 19840 1
19834 19839 1
19834 19840 1
19835 19837 1
19835 19838 1
19836 19841 1
19837 19839 1
19837 19840 1
19839 19841 1
19842 19845 1
19842 19846 1
19842 19850 1
19842 19853 1
19843 19847 1
19843 19848 1
19843 19851 1
19844 19849 1
19844 19850 1
19844 19853 1
19845 19847 1
19845 19848 1
19845 19852 1
19846 19851 1
19846 19852 1
19847 19849 1
19847 19850 1
19848 19853 1
19849 19851 1
19849 19852 1
19851 19853 1
19854 19857 1
19854 19858 1
19854 19862 1
19854 19865 1
19855 19859 1
19855 19860 1
19855 19863 1
19856 19861 1
19856 19862 1
19856 19865 1
19857 19859 1
19857 19860 1
19857 19864 1
19858 19863 1
19858 19864 1
19859 19861 1
19859 19862 1
19860 19865 1
19861 19863 1
19861 19864 1
19863 19865 1
19866 19869 1
19866 19870 1
19866 19874 1
19866 19877 1
19867 19871 1
19867 19872 1
19867 19875 1
19868 19873 1
19868 19874 1
19868 19877 1
19869 19871 1
19869 19872 1
19869 19876 1
19870 19875 1
19870 19876 1
19871 19873 1
19871 19874 1
19872 19877 1
19873 19875 1
19873 19876 1
19875 19877 1
19878 19881 1
19878 19882 1
19878 19886 1
19878 19889 1
19879 19883 1
19879 19884 1
19879 19887 1
19880 19885 1
19880 19886 1
19880 19889 1
19881 19883 1
19881 19884 1
19881 19888 1
19882 19887 1
19882 19888 1
19883 19885 1
19883 19886 1
19884 19889 1
19885 19887 1
19885 19888 1
19887 19889 1
19890 19893 1
19890 19894 1
19890 19898 1
19890 19901 1
19891 19895 1
19891 19896 1
19891 19899 1
19892 19897 1
19892 19898 1
19892 19901 1
19893 19895 1
19893 19896 1
19893 19900 1
19894 19899 1
19894 19900 1
19895 19897 1
19895 19898 1
19896 19901 1
19897 19899 1
19897 19900 1
19899 19901 1
19902 19905 1
19902 19906 1
19902 19910 1
19902 19913 1
19903 19907 1
19903 19908 1
19903 19911 1
19904 19909 1
19904 19910 1
19904 19913 1
19905 19907 1
19905 19908 1
19905 19912 1
19906 19911 1
19906 19912 1
19907 19909 1
19907 19910 1
19908 19913 1
19909 19911 1
19909 19912 1
19911 19913 1
19914 19917 1
19914 19918 1
19914 19922 1
19914 19925 1
19915 19919 1
19915 19920 1
19915 19923 1
19916 19921 1
19916 19922 1
19916 19925 1
19917 19919 1
19917 19920 1
19917 19924 1
19918 19923 1
19918 19924 1
19919 19921 1
19919 19922 1
19920 19925 1
19921 19923 1
19921 19924 1
19923 19925 1
19926 19929 1
19926 19930 1
19926 19934 1
19926 19937 1
19927 19931 1
19927 19932 1
19927 19935 1
19928 19933 1
19928 19934 1
19928 19937 1
19929 19931 1
19929 19932 1
19929 19936 1
19930 19935 1
19930 19936 1
19931 19933 1
19931 19934 1
19932 19937 1
19933 19935 1
19933 19936 1
19935 19937 1
19938 19941 1
19938 19942 1
19938 19946 1
19938 19949 1
19939 19943 1
19939 19944 1
19939 19947 1
19940 19945 1
19940 19946 1
19940 19949 1
19941 19943 1
19941 19944 1
19941 19948 1
19942 19947 1
19942 19948 1
19943 19945 1
19943 19946 1
19944 19949 1
19945 19947 1
19945 19948 1
19947 19949 1
19950 19953 1
19950 19954 1
19950 19958 1
19950 19961 1
19951 19955 1
19951 19956 1
19951 19959 1
19952 19957 1
19952 19958 1
19952 19961 1
19953 19955 1
19953 19956 1
19953 19960 1
19954 19959 1
19954 19960 1
19955 19957 1
19955 19958 1
19956 19961 1
19957 19959 1
19957 19960 1
19959 19961 1
19962 19965 1
19962 19966 1
19962 19970 1
19962 19973 1
19963 19967 1
19963 19968 1
19963 19971 1
19964 19969 1
19964 19970 1
19964 19973 1
19965 19967 1
19965 19968 1
19965 19972 1
19966 19971 1
19966 19972 1
19967 19969 1
19967 19970 1
19968 19973 1
19969 19971 1
19969 19972 1
19971 19973 1
19974 19977 1
19974 19978 1
19974 19982 1
19974 19985 1
19975 19979 1
19975 19980 1
19975 19983 1
19976 19981 1
19976 19982 1
19976 19985 1
19977 19979 1
19977 19980 1
19977 19984 1
19978 19983 1
19978 19984 1
19979 19981 1
19979 19982 1
19980 19985 1
19981 19983 1
19981 19984 1
19983 19985 1
19986 19989 1
19986 19990 1
19986 19994 1
19986 19997 1
19987 19991 1
19987 19992 1
19987 19995 1
19988 19993 1
19988 19994 1
19988 19997 1
19989 19991 1
19989 19992 1
19989 19996 1
19990 19995 1
19990 19996 1
19991 19993 1
19991 19994 1
19992 19997 1
19993 19995 1
19993 19996 1
19995 19997 1
19998 20001 1
19998 20002 1
19998 20006 1
19998 20009 1
19999 20003 1
19999 20004 1
19999 20007 1
20000 20005 1
20000 20006 1
20000 20009 1
20001 20003 1
20001 20004 1
20001 20008 1
20002 20007 1
20002 20008 1
20003 20005 1
20003 20006 1
20004 20009 1
20005 20007 1
20005 20008 1
20007 20009 1
20010 20013 1
20010 20014 1
20010 20018 1
20010 20021 1
20011 20015 1
20011 20016 1
20011 20019 1
20012 20017 1
20012 20018 1
20012 20021 1
20013 20015 1
20013 20016 1
20013 20020 1
20014 20019 1
20014 20020 1
20015 20017 1
20015 20018 1
20016 20021 1
20017 20019 1
20017 20020 1
20019 20021 1
20022 20025 1
20022 20026 1
20022 20030 1
20022 20033 1
20023 20027 1
20023 20028 1
20023 20031 1
20024 20029 1
20024 20030 1
20024 20033 1
20025 20027 1
20025 20028 1
20025 20032 1
20026 20031 1
20026 20032 1
20027 20029 1
20027 20030 1
20028 20033 1
20029 20031 1
20029 20032 1
20031 20033 1
20034 20037 1
20034 20038 1
20034 20042 1
20034 20045 1
20035 20039 1
20035 20040 1
20035 20043 1
20036 20041 1
20036 20042 1
20036 20045 1
20037 20039 1
20037 20040 1
20037 20044 1
20038 20043 1
20038 20044 1
20039 20041 1
20039 20042 1
20040 20045 1
20041 20043 1
20041 20044 1
20043 20045 1
20046 20049 1
20046 20050 1
20046 20054 1
20046 20057 1
20047 20051 1
20047 20052 1
20047 20055 1
20048 20053 1
20048 20054 1
20048 20057 1
20049 20051 1
20049 20052 1
20049 20056 1
20050 20055 1
20050 20056 1
20051 20053 1
20051 20054 1
20052 20057 1
20053 20055 1
20053 20056 1
20055 20057 1
20058 20061 1
20058 20062 1
20058 20066 1
20058 20069 1
20059 20063 1
20059 20064 1
20059 20067 1
20060 20065 1
20060 20066 1
20060 20069 1
20061 20063 1
20061 20064 1
20061 20068 1
20062 20067 1
20062 20068 1
20063 20065 1
20063 20066 1
20064 20069 1
20065 20067 1
20065 20068 1
20067 20069 1
20070 20073 1
20070 20074 1
20070 20078 1
20070 20081 1
20071 20075 1
20071 20076 1
20071 20079 1
20072 20077 1
20072 20078 1
20072 20081 1
20073 20075 1
20073 20076 1
20073 20080 1
20074 20079 1
20074 20080 1
20075 20077 1
20075 20078 1
20076 20081 1
20077 20079 1
20077 20080 1
20079 20081 1
20082 20085 1
20082 20086 1
20082 20090 1
20082 20093 1
20083 20087 1
20083 20088 1
20083 20091 1
20084 20089 1
20084 20090 1
20084 20093 1
20085 20087 1
20085 20088 1
20085 20092 1
20086 20091 1
20086 20092 1
20087 20089 1
20087 20090 1
20088 20093 1
20089 20091 1
20089 20092 1
20091 20093 1
20094 20097 1
20094 20098 1
20094 20102 1
20094 20105 1
20095 20099 1
20095 20100 1
20095 20103 1
20096 20101 1
20096 20102 1
20096 20105 1
20097 20099 1
20097 20100 1
20097 20104 1
20098 20103 1
20098 20104 1
20099 20101 1
20099 20102 1
20100 20105 1
20101 20103 1
20101 20104 1
20103 20105 1
20106 20109 1
20106 20110 1
20106 20114 1
20106 20117 1
20107 20111 1
20107 20112 1
20107 20115 1
20108 20113 1
20108 20114 1
20108 20117 1
20109 20111 1
20109 20112 1
20109 20116 1
20110 20115 1
20110 20116 1
20111 20113 1
20111 20114 1
20112 20117 1
20113 20115 1
20113 20116 1
20115 20117 1
20118 20121 1
20118 20122 1
20118 20126 1
20118 20129 1
20119 20123 1
20119 20124 1
20119 20127 1
20120 20125 1
20120 20126 1
20120 20129 1
20121 20123 1
20121 20124 1
20121 20128 1
20122 20127 1
20122 20128 1
20123 20125 1
20123 20126 1
20124 20129 1
20125 20127 1
20125 20128 1
20127 20129 1
20130 20133 1
20130 20134 1
20130 20138 1
20130 20141 1
20131 20135 1
20131 20136 1
20131 20139 1
20132 20137 1
20132 20138 1
20132 20141 1
20133 20135 1
20133 20136 1
20133 20140 1
20134 20139 1
20134 20140 1
20135 20137 1
20135 20138 1
20136 20141 1
20137 20139 1
20137 20140 1
20139 20141 1
20142 20145 1
20142 20146 1
20142 20150 1
20142 20153 1
20143 20147 1
20143 20148 1
20143 20151 1
20144 20149 1
20144 20150 1
20144 20153 1
20145 20147 1
20145 20148 1
20145 20152 1
20146 20151 1
20146 20152 1
20147 20149 1
20147 20150 1
20148 20153 1
20149 20151 1
20149 20152 1
20151 20153 1
20154 20157 1
20154 20158 1
20154 20162 1
20154 20165 1
20155 20159 1
20155 20160 1
20155 20163 1
20156 20161 1
20156 20162 1
20156 20165 1
20157 20159 1
20157 20160 1
20157 20164 1
20158 20163 1
20158 20164 1
20159 20161 1
20159 20162 1
20160 20165 1
20161 20163 1
20161 20164 1
20163 20165 1
20166 20169 1
20166 20170 1
20166 20174 1
20166 20177 1
20167 20171 1
20167 20172 1
20167 20175 1
20168 20173 1
20168 20174 1
20168 20177 1
20169 20171 1
20169 20172 1
20169 20176 1
20170 20175 1
20170 20176 1
20171 20173 1
20171 20174 1
20172 20177 1
20173 20175 1
20173 20176 1
20175 20177 1
20178 20181 1
20178 20182 1
20178 20186 1
20178 20189 1
20179 20183 1
20179 20184 1
20179 20187 1
20180 20185 1
20180 20186 1
20180 20189 1
20181 20183 1
20181 20184 1
20181 20188 1
20182 20187 1
20182 20188 1
20183 20185 1
20183 20186 1
20184 20189 1
20185 20187 1
20185 20188 1
20187 20189 1
20190 20193 1
20190 20194 1
20190 20198 1
20190 20201 1
20191 20195 1
20191 20196 1
20191 20199 1
20192 20197 1
20192 20198 1
20192 20201 1
20193 20195 1
20193 20196 1
20193 20200 1
20194 20199 1
20194 20200 1
20195 20197 1
20195 20198 1
20196 20201 1
20197 20199 1
20197 20200 1
20199 20201 1
20202 20205 1
20202 20206 1
20202 20210 1
20202 20213 1
20203 20207 1
20203 20208 1
20203 20211 1
20204 20209 1
20204 20210 1
20204 20213 1
20205 20207 1
20205 20208 1
20205 20212 1
20206 20211 1
20206 20212 1
20207 20209 1
20207 20210 1
20208 20213 1
20209 20211 1
20209 20212 1
20211 20213 1
20214 20217 1
20214 20218 1
20214 20222 1
20214 20225 1
20215 20219 1
20215 20220 1
20215 20223 1
20216 20221 1
20216 20222 1
20216 20225 1
20217 20219 1
20217 20220 1
20217 20224 1
20218 20223 1
20218 20224 1
20219 20221 1
20219 20222 1
20220 20225 1
20221 20223 1
20221 20224 1
20223 20225 1
20226 20229 1
20226 20230 1
20226 20234 1
20226 20237 1
20227 20231 1
20227 20232 1
20227 20235 1
20228 20233 1
20228 20234 1
20228 20237 1
20229 20231 1
20229 20232 1
20229 20236 1
20230 20235 1
20230 20236 1
20231 20233 1
20231 20234 1
20232 20237 1
20233 20235 1
20233 20236 1
20235 20237 1
20238 20241 1
20238 20242 1
20238 20246 1
20238 20249 1
20239 20243 1
20239 20244 1
20239 20247 1
20240 20245 1
20240 20246 1
20240 20249 1
20241 20243 1
20241 20244 1
20241 20248 1
20242 20247 1
20242 20248 1
20243 20245 1
20243 20246 1
20244 20249 1
20245 20247 1
20245 20248 1
20247 20249 1
20250 20253 1
20250 20254 1
20250 20258 1
20250 20261 1
20251 20255 1
20251 20256 1
20251 20259 1
20252 20257 1
20252 20258 1
20252 20261 1
20253 20255 1
20253 20256 1
20253 20260 1
20254 20259 1
20254 20260 1
20255 20257 1
20255 20258 1
20256 20261 1
20257 20259 1
20257 20260 1
20259 20261 1
20262 20265 1
20262 20266 1
20262 20270 1
20262 20273 1
20263 20267 1
20263 20268 1
20263 20271 1
20264 20269 1
20264 20270 1
20264 20273 1
20265 20267 1
20265 20268 1
20265 20272 1
20266 20271 1
20266 20272 1
20267 20269 1
20267 20270 1
20268 20273 1
20269 20271 1
20269 20272 1
20271 20273 1
20274 20277 1
20274 20278 1
20274 20282 1
20274 20285 1
20275 20279 1
20275 20280 1
20275 20283 1
20276 20281 1
20276 20282 1
20276 20285 1
20277 20279 1
20277 20280 1
20277 20284 1
20278 20283 1
20278 20284 1
20279 20281 1
20279 20282 1
20280 20285 1
20281 20283 1
20281 20284 1
20283 20285 1
20286 20289 1
20286 20290 1
20286 20294 1
20286 20297 1
20287 20291 1
20287 20292 1
20287 20295 1
20288 20293 1
20288 20294 1
20288 20297 1
20289 20291 1
20289 20292 1
20289 20296 1
20290 20295 1
20290 20296 1
20291 20293 1
20291 20294 1
20292 20297 1
20293 20295 1
20293 20296 1
20295 20297 1
20298 20301 1
20298 20302 1
20298 20306 1
20298 20309 1
20299 20303 1
20299 20304 1
20299 20307 1
20300 20305 1
20300 20306 1
20300 20309 1
20301 20303 1
20301 20304 1
20301 20308 1
20302 20307 1
20302 20308 1
20303 20305 1
20303 20306 1
20304 20309 1
20305 20307 1
20305 20308 1
20307 20309 1
20310 20313 1
20310 20314 1
20310 20318 1
20310 20321 1
20311 20315 1
20311 20316 1
20311 20319 1
20312 20317 1
20312 20318 1
20312 20321 1
20313 20315 1
20313 20316 1
20313 20320 1
20314 20319 1
20314 20320 1
20315 20317 1
20315 20318 1
20316 20321 1
20317 20319 1
20317 20320 1
20319 20321 1
20322 20325 1
20322 20326 1
20322 20330 1
20322 20333 1
20323 20327 1
20323 20328 1
20323 20331 1
20324 20329 1
20324 20330 1
20324 20333 1
20325 20327 1
20325 20328 1
20325 20332 1
20326 20331 1
20326 20332 1
20327 20329 1
20327 20330 1
20328 20333 1
20329 20331 1
20329 20332 1
20331 20333 1
20334 20337 1
20334 20338 1
20334 20342 1
20334 20345 1
20335 20339 1
20335 20340 1
20335 20343 1
20336 20341 1
20336 20342 1
20336 20345 1
20337 20339 1
20337 20340 1
20337 20344 1
20338 20343 1
20338 20344 1
20339 20341 1
20339 20342 1
20340 20345 1
20341 20343 1
20341 20344 1
20343 20345 1
20346 20349 1
20346 20350 1
20346 20354 1
20346 20357 1
20347 20351 1
20347 20352 1
20347 20355 1
20348 20353 1
20348 20354 1
20348 20357 1
20349 20351 1
20349 20352 1
20349 20356 1
20350 20355 1
20350 20356 1
20351 20353 1
20351 20354 1
20352 20357 1
20353 20355 1
20353 20356 1
20355 20357 1
20358 20361 1
20358 20362 1
20358 20366 1
20358 20369 1
20359 20363 1
20359 20364 1
20359 20367 1
20360 20365 1
20360 20366 1
20360 20369 1
20361 20363 1
20361 20364 1
20361 20368 1
20362 20367 1
20362 20368 1
20363 20365 1
20363 20366 1
20364 20369 1
20365 20367 1
20365 20368 1
20367 20369 1
20370 20373 1
20370 20374 1
20370 20378 1
20370 20381 1
20371 20375 1
20371 20376 1
20371 20379 1
20372 20377 1
20372 20378 1
20372 20381 1
20373 20375 1
20373 20376 1
20373 20380 1
20374 20379 1
20374 20380 1
20375 20377 1
20375 20378 1
20376 20381 1
20377 20379 1
20377 20380 1
20379 20381 1
20382 20385 1
20382 20386 1
20382 20390 1
20382 20393 1
20383 20387 1
20383 20388 1
20383 20391 1
20384 20389 1
20384 20390 1
20384 20393 1
20385 20387 1
20385 20388 1
20385 20392 1
20386 20391 1
20386 20392 1
20387 20389 1
20387 20390 1
20388 20393 1
20389 20391 1
20389 20392 1
20391 20393 1
20394 20397 1
20394 20398 1
20394 20402 1
20394 20405 1
20395 20399 1
20395 20400 1
20395 20403 1
20396 20401 1
20396 20402 1
20396 20405 1
20397 20399 1
20397 20400 1
20397 20404 1
20398 20403 1
20398 20404 1
20399 20401 1
20399 20402 1
20400 20405 1
20401 20403 1
20401 20404 1
20403 20405 1
20406 20409 1
20406 20410 1
20406 20414 1
20406 20417 1
20407 20411 1
20407 20412 1
20407 20415 1
20408 20413 1
20408 20414 1
20408 20417 1
20409 20411 1
20409 20412 1
20409 20416 1
20410 20415 1
20410 20416 1
20411 20413 1
20411 20414 1
20412 20417 1
20413 20415 1
20413 20416 1
20415 20417 1
20418 20421 1
20418 20422 1
20418 20426 1
20418 20429 1
20419 20423 1
20419 20424 1
20419 20427 1
20420 20425 1
20420 20426 1
20420 20429 1
20421 20423 1
20421 20424 1
20421 20428 1
20422 20427 1
20422 20428 1
20423 20425 1
20423 20426 1
20424 20429 1
20425 20427 1
20425 20428 1
20427 20429 1
20430 20433 1
20430 20434 1
20430 20438 1
20430 20441 1
20431 20435 1
20431 20436 1
20431 20439 1
20432 20437 1
20432 20438 1
20432 20441 1
20433 20435 1
20433 20436 1
20433 20440 1
20434 20439 1
20434 20440 1
20435 20437 1
20435 20438 1
20436 20441 1
20437 20439 1
20437 20440 1
20439 20441 1
20442 20445 1
20442 20446 1
20442 20450 1
20442 20453 1
20443 20447 1
20443 20448 1
20443 20451 1
20444 20449 1
20444 20450 1
20444 20453 1
20445 20447 1
20445 20448 1
20445 20452 1
20446 20451 1
20446 20452 1
20447 20449 1
20447 20450 1
20448 20453 1
20449 20451 1
20449 20452 1
20451 20453 1
20454 20457 1
20454 20458 1
20454 20462 1
20454 20465 1
20455 20459 1
20455 20460 1
20455 20463 1
20456 20461 1
20456 20462 1
20456 20465 1
20457 20459 1
20457 20460 1
20457 20464 1
20458 20463 1
20458 20464 1
20459 20461 1
20459 20462 1
20460 20465 1
20461 20463 1
20461 20464 1
20463 20465 1
20466 20469 1
20466 20470 1
20466 20474 1
20466 20477 1
20467 20471 1
20467 20472 1
20467 20475 1
20468 20473 1
20468 20474 1
20468 20477 1
20469 20471 1
20469 20472 1
20469 20476 1
20470 20475 1
20470 20476 1
20471 20473 1
20471 20474 1
20472 20477 1
20473 20475 1
20473 20476 1
20475 20477 1
20478 20481 1
20478 20482 1
20478 20486 1
20478 20489 1
20479 20483 1
20479 20484 1
20479 20487 1
20480 20485 1
20480 20486 1
20480 20489 1
20481 20483 1
20481 20484 1
20481 20488 1
20482 20487 1
20482 20488 1
20483 20485 1
20483 20486 1
20484 20489 1
20485 20487 1
20485 20488 1
20487 20489 1
20490 20493 1
20490 20494 1
20490 20498 1
20490 20501 1
20491 20495 1
20491 20496 1
20491 20499 1
20492 20497 1
20492 20498 1
20492 20501 1
20493 20495 1
20493 20496 1
20493 20500 1
20494 20499 1
20494 20500 1
20495 20497 1
20495 20498 1
20496 20501 1
20497 20499 1
20497 20500 1
20499 20501 1
20502 20505 1
20502 20506 1
20502 20510 1
20502 20513 1
20503 20507 1
20503 20508 1
20503 20511 1
20504 20509 1
20504 20510 1
20504 20513 1
20505 20507 1
20505 20508 1
20505 20512 1
20506 20511 1
20506 20512 1
20507 20509 1
20507 20510 1
20508 20513 1
20509 20511 1
20509 20512 1
20511 20513 1
20514 20517 1
20514 20518 1
20514 20522 1
20514 20525 1
20515 20519 1
20515 20520 1
20515 20523 1
20516 20521 1
20516 20522 1
20516 20525 1
20517 20519 1
20517 20520 1
20517 20524 1
20518 20523 1
20518 20524 1
20519 20521 1
20519 20522 1
20520 20525 1
20521 20523 1
20521 20524 1
20523 20525 1
20526 20529 1
20526 20530 1
20526 20534 1
20526 20537 1
20527 20531 1
20527 20532 1
20527 20535 1
20528 20533 1
20528 20534 1
20528 20537 1
20529 20531 1
20529 20532 1
20529 20536 1
20530 20535 1
20530 20536 1
20531 20533 1
20531 20534 1
20532 20537 1
20533 20535 1
20533 20536 1
20535 20537 1
20538 20541 1
20538 20542 1
20538 20546 1
20538 20549 1
20539 20543 1
20539 20544 1
20539 20547 1
20540 20545 1
20540 20546 1
20540 20549 1
20541 20543 1
20541 20544 1
20541 20548 1
20542 20547 1
20542 20548 1
20543 20545 1
20543 20546 1
20544 20549 1
20545 20547 1
20545 20548 1
20547 20549 1
20550 20553 1
20550 20554 1
20550 20558 1
20550 20561 1
20551 20555 1
20551 20556 1
20551 20559 1
20552 20557 1
20552 20558 1
20552 20561 1
20553 20555 1
20553 20556 1
20553 20560 1
20554 20559 1
20554 20560 1
20555 20557 1
20555 20558 1
20556 20561 1
20557 20559 1
20557 20560 1
20559 20561 1
20562 20565 1
20562 20566 1
20562 20570 1
20562 20573 1
20563 20567 1
20563 20568 1
20563 20571 1
20564 20569 1
20564 20570 1
20564 20573 1
20565 20567 1
20565 20568 1
20565 20572 1
20566 20571 1
20566 20572 1
20567 20569 1
20567 20570 1
20568 20573 1
20569 20571 1
20569 20572 1
20571 20573 1
20574 20577 1
20574 20578 1
20574 20582 1
20574 20585 1
20575 20579 1
20575 20580 1
20575 20583 1
20576 20581 1
20576 20582 1
20576 20585 1
20577 20579 1
20577 20580 1
20577 20584 1
20578 20583 1
20578 20584 1
20579 20581 1
20579 20582 1
20580 20585 1
20581 20583 1
20581 20584 1
20583 20585 1
20586 20589 1
20586 20590 1
20586 20594 1
20586 20597 1
20587 20591 1
20587 20592 1
20587 20595 1
20588 20593 1
20588 20594 1
20588 20597 1
20589 20591 1
20589 20592 1
20589 20596 1
20590 20595 1
20590 20596 1
20591 20593 1
20591 20594 1
20592 20597 1
20593 20595 1
20593 20596 1
20595 20597 1
20598 20601 1
20598 20602 1
20598 20606 1
20598 20609 1
20599 20603 1
20599 20604 1
20599 20607 1
20600 20605 1
20600 20606 1
20600 20609 1
20601 20603 1
20601 20604 1
20601 20608 1
20602 20607 1
20602 20608 1
20603 20605 1
20603 20606 1
20604 20609 1
20605 20607 1
20605 20608 1
20607 20609 1
20610 20613 1
20610 20614 1
20610 20618 1
20610 20621 1
20611 20615 1
20611 20616 1
20611 20619 1
20612 20617 1
20612 20618 1
20612 20621 1
20613 20615 1
20613 20616 1
20613 20620 1
20614 20619 1
20614 20620 1
20615 20617 1
20615 20618 1
20616 20621 1
20617 20619 1
20617 20620 1
20619 20621 1
20622 20625 1
20622 20626 1
20622 20630 1
20622 20633 1
20623 20627 1
20623 20628 1
20623 20631 1
20624 20629 1
20624 20630 1
20624 20633 1
20625 20627 1
20625 20628 1
20625 20632 1
20626 20631 1
20626 20632 1
20627 20629 1
20627 20630 1
20628 20633 1
20629 20631 1
20629 20632 1
20631 20633 1
20634 20637 1
20634 20638 1
20634 20642 1
20634 20645 1
20635 20639 1
20635 20640 1
20635 20643 1
20636 20641 1
20636 20642 1
20636 20645 1
20637 20639 1
20637 20640 1
20637 20644 1
20638 20643 1
20638 20644 1
20639 20641 1
20639 20642 1
20640 20645 1
20641 20643 1
20641 20644 1
20643 20645 1
20646 20649 1
20646 20650 1
20646 20654 1
20646 20657 1
20647 20651 1
20647 20652 1
20647 20655 1
20648 20653 1
20648 20654 1
20648 20657 1
20649 20651 1
20649 20652 1
20649 20656 1
20650 20655 1
20650 20656 1
20651 20653 1
20651 20654 1
20652 20657 1
20653 20655 1
20653 20656 1
20655 20657 1
20658 20661 1
20658 20662 1
20658 20666 1
20658 20669 1
20659 20663 1
20659 20664 1
20659 20667 1
20660 20665 1
20660 20666 1
20660 20669 1
20661 20663 1
20661 20664 1
20661 20668 1
20662 20667 1
20662 20668 1
20663 20665 1
20663 20666 1
20664 20669 1
20665 20667 1
20665 20668 1
20667 20669 1
20670 20673 1
20670 20674 1
20670 20678 1
20670 20681 1
20671 20675 1
20671 20676 1
20671 20679 1
20672 20677 1
20672 20678 1
20672 20681 1
20673 20675 1
20673 20676 1
20673 20680 1
20674 20679 1
20674 20680 1
20675 20677 1
20675 20678 1
20676 20681 1
20677 20679 1
20677 20680 1
20679 20681 1
20682 20685 1
20682 20686 1
20682 20690 1
20682 20693 1
20683 20687 1
20683 20688 1
20683 20691 1
20684 20689 1
20684 20690 1
20684 20693 1
20685 20687 1
20685 20688 1
20685 20692 1
20686 20691 1
20686 20692 1
20687 20689 1
20687 20690 1
20688 20693 1
20689 20691 1
20689 20692 1
20691 20693 1
20694 20697 1
20694 20698 1
20694 20702 1
20694 20705 1
20695 20699 1
20695 20700 1
20695 20703 1
20696 20701 1
20696 20702 1
20696 20705 1
20697 20699 1
20697 20700 1
20697 20704 1
20698 20703 1
20698 20704 1
20699 20701 1
20699 20702 1
20700 20705 1
20701 20703 1
20701 20704 1
20703 20705 1
20706 20709 1
20706 20710 1
20706 20714 1
20706 20717 1
20707 20711 1
20707 20712 1
20707 20715 1
20708 20713 1
20708 20714 1
20708 20717 1
20709 20711 1
20709 20712 1
20709 20716 1
20710 20715 1
20710 20716 1
20711 20713 1
20711 20714 1
20712 20717 1
20713 20715 1
20713 20716 1
20715 20717 1
20718 20721 1
20718 20722 1
20718 20726 1
20718 20729 1
20719 20723 1
20719 20724 1
20719 20727 1
20720 20725 1
20720 20726 1
20720 20729 1
20721 20723 1
20721 20724 1
20721 20728 1
20722 20727 1
20722 20728 1
20723 20725 1
20723 20726 1
20724 20729 1
20725 20727 1
20725 20728 1
20727 20729 1
20730 20733 1
20730 20734 1
20730 20738 1
20730 20741 1
20731 20735 1
20731 20736 1
20731 20739 1
20732 20737 1
20732 20738 1
20732 20741 1
20733 20735 1
20733 20736 1
20733 20740 1
20734 20739 1
20734 20740 1
20735 20737 1
20735 20738 1
20736 20741 1
20737 20739 1
20737 20740 1
20739 20741 1
20742 20745 1
20742 20746 1
20742 20750 1
20742 20753 1
20743 20747 1
20743 20748 1
20743 20751 1
20744 20749 1
20744 20750 1
20744 20753 1
20745 20747 1
20745 20748 1
20745 20752 1
20746 20751 1
20746 20752 1
20747 20749 1
20747 20750 1
20748 20753 1
20749 20751 1
20749 20752 1
20751 20753 1
20754 20757 1
20754 20758 1
20754 20762 1
20754 20765 1
20755 20759 1
20755 20760 1
20755 20763 1
20756 20761 1
20756 20762 1
20756 20765 1
20757 20759 1
20757 20760 1
20757 20764 1
20758 20763 1
20758 20764 1
20759 20761 1
20759 20762 1
20760 20765 1
20761 20763 1
20761 20764 1
20763 20765 1
20766 20769 1
20766 20770 1
20766 20774 1
20766 20777 1
20767 20771 1
20767 20772 1
20767 20775 1
20768 20773 1
20768 20774 1
20768 20777 1
20769 20771 1
20769 20772 1
20769 20776 1
20770 20775 1
20770 20776 1
20771 20773 1
20771 20774 1
20772 20777 1
20773 20775 1
20773 20776 1
20775 20777 1
20778 20781 1
20778 20782 1
20778 20786 1
20778 20789 1
20779 20783 1
20779 20784 1
20779 20787 1
20780 20785 1
20780 20786 1
20780 20789 1
20781 20783 1
20781 20784 1
20781 20788 1
20782 20787 1
20782 20788 1
20783 20785 1
20783 20786 1
20784 20789 1
20785 20787 1
20785 20788 1
20787 20789 1
20790 20793 1
20790 20794 1
20790 20798 1
20790 20801 1
20791 20795 1
20791 20796 1
20791 20799 1
20792 20797 1
20792 20798 1
20792 20801 1
20793 20795 1
20793 20796 1
20793 20800 1
20794 20799 1
20794 20800 1
20795 20797 1
20795 20798 1
20796 20801 1
20797 20799 1
20797 20800 1
20799 20801 1
20802 20805 1
20802 20806 1
20802 20810 1
20802 20813 1
20803 20807 1
20803 20808 1
20803 20811 1
20804 20809 1
20804 20810 1
20804 20813 1
20805 20807 1
20805 20808 1
20805 20812 1
20806 20811 1
20806 20812 1
20807 20809 1
20807 20810 1
20808 20813 1
20809 20811 1
20809 20812 1
20811 20813 1
20814 20817 1
20814 20818 1
20814 20822 1
20814 20825 1
20815 20819 1
20815 20820 1
20815 20823 1
20816 20821 1
20816 20822 1
20816 20825 1
20817 20819 1
20817 20820 1
20817 20824 1
20818 20823 1
20818 20824 1
20819 20821 1
20819 20822 1
20820 20825 1
20821 20823 1
20821 20824 1
20823 20825 1
20826 20829 1
20826 20830 1
20826 20834 1
20826 20837 1
20827 20831 1
20827 20832 1
20827 20835 1
20828 20833 1
20828 20834 1
20828 20837 1
20829 20831 1
20829 20832 1
20829 20836 1
20830 20835 1
20830 20836 1
20831 20833 1
20831 20834 1
20832 20837 1
20833 20835 1
20833 20836 1
20835 20837 1
20838 20841 1
20838 20842 1
20838 20846 1
20838 20849 1
20839 20843 1
20839 20844 1
20839 20847 1
20840 20845 1
20840 20846 1
20840 20849 1
20841 20843 1
20841 20844 1
20841 20848 1
20842 20847 1
20842 20848 1
20843 20845 1
20843 20846 1
20844 20849 1
20845 20847 1
20845 20848 1
20847 20849 1
20850 20853 1
20850 20854 1
20850 20858 1
20850 20861 1
20851 20855 1
20851 20856 1
20851 20859 1
20852 20857 1
20852 20858 1
20852 20861 1
20853 20855 1
20853 20856 1
20853 20860 1
20854 20859 1
20854 20860 1
20855 20857 1
20855 20858 1
20856 20861 1
20857 20859 1
20857 20860 1
20859 20861 1
20862 20865 1
20862 20866 1
20862 20870 1
20862 20873 1
20863 20867 1
20863 20868 1
20863 20871 1
20864 20869 1
20864 20870 1
20864 20873 1
20865 20867 1
20865 20868 1
20865 20872 1
20866 20871 1
20866 20872 1
20867 20869 1
20867 20870 1
20868 20873 1
20869 20871 1
20869 20872 1
20871 20873 1
20874 20877 1
20874 20878 1
20874 20882 1
20874 20885 1
20875 20879 1
20875 20880 1
20875 20883 1
20876 20881 1
20876 20882 1
20876 20885 1
20877 20879 1
20877 20880 1
20877 20884 1
20878 20883 1
20878 20884 1
20879 20881 1
20879 20882 1
20880 20885 1
20881 20883 1
20881 20884 1
20883 20885 1
20886 20889 1
20886 20890 1
20886 20894 1
20886 20897 1
20887 20891 1
20887 20892 1
20887 20895 1
20888 20893 1
20888 20894 1
20888 20897 1
20889 20891 1
20889 20892 1
20889 20896 1
20890 20895 1
20890 20896 1
20891 20893 1
20891 20894 1
20892 20897 1
20893 20895 1
20893 20896 1
20895 20897 1
20898 20901 1
20898 20902 1
20898 20906 1
20898 20909 1
20899 20903 1
20899 20904 1
20899 20907 1
20900 20905 1
20900 20906 1
20900 20909 1
20901 20903 1
20901 20904 1
20901 20908 1
20902 20907 1
20902 20908 1
20903 20905 1
20903 20906 1
20904 20909 1
20905 20907 1
20905 20908 1
20907 20909 1
20910 20913 1
20910 20914 1
20910 20918 1
20910 20921 1
20911 20915 1
20911 20916 1
20911 20919 1
20912 20917 1
20912 20918 1
20912 20921 1
20913 20915 1
20913 20916 1
20913 20920 1
20914 20919 1
20914 20920 1
20915 20917 1
20915 20918 1
20916 20921 1
20917 20919 1
20917 20920 1
20919 20921 1
20922 20925 1
20922 20926 1
20922 20930 1
20922 20933 1
20923 20927 1
20923 20928 1
20923 20931 1
20924 20929 1
20924 20930 1
20924 20933 1
20925 20927 1
20925 20928 1
20925 20932 1
20926 20931 1
20926 20932 1
20927 20929 1
20927 20930 1
20928 20933 1
20929 20931 1
20929 20932 1
20931 20933 1
20934 20937 1
20934 20938 1
20934 20942 1
20934 20945 1
20935 20939 1
20935 20940 1
20935 20943 1
20936 20941 1
20936 20942 1
20936 20945 1
20937 20939 1
20937 20940 1
20937 20944 1
20938 20943 1
20938 20944 1
20939 20941 1
20939 20942 1
20940 20945 1
20941 20943 1
20941 20944 1
20943 20945 1
20946 20949 1
20946 20950 1
20946 20954 1
20946 20957 1
20947 20951 1
20947 20952 1
20947 20955 1
20948 20953 1
20948 20954 1
20948 20957 1
20949 20951 1
20949 20952 1
20949 20956 1
20950 20955 1
20950 20956 1
20951 20953 1
20951 20954 1
20952 20957 1
20953 20955 1
20953 20956 1
20955 20957 1
20958 20961 1
20958 20962 1
20958 20966 1
20958 20969 1
20959 20963 1
20959 20964 1
20959 20967 1
20960 20965 1
20960 20966 1
20960 20969 1
20961 20963 1
20961 20964 1
20961 20968 1
20962 20967 1
20962 20968 1
20963 20965 1
20963 20966 1
20964 20969 1
20965 20967 1
20965 20968 1
20967 20969 1
20970 20973 1
20970 20974 1
20970 20978 1
20970 20981 1
20971 20975 1
20971 20976 1
20971 20979 1
20972 20977 1
20972 20978 1
20972 20981 1
20973 20975 1
20973 20976 1
20973 20980 1
20974 20979 1
20974 20980 1
20975 20977 1
20975 20978 1
20976 20981 1
20977 20979 1
20977 20980 1
20979 20981 1
20982 20985 1
20982 20986 1
20982 20990 1
20982 20993 1
20983 20987 1
20983 20988 1
20983 20991 1
20984 20989 1
20984 20990 1
20984 20993 1
20985 20987 1
20985 20988 1
20985 20992 1
20986 20991 1
20986 20992 1
20987 20989 1
20987 20990 1
20988 20993 1
20989 20991 1
20989 20992 1
20991 20993 1
20994 20997 1
20994 20998 1
20994 21002 1
20994 21005 1
20995 20999 1
20995 21000 1
20995 21003 1
20996 21001 1
20996 21002 1
20996 21005 1
20997 20999 1
20997 21000 1
20997 21004 1
20998 21003 1
20998 21004 1
20999 21001 1
20999 21002 1
21000 21005 1
21001 21003 1
21001 21004 1
21003 21005 1
21006 21009 1
21006 21010 1
21006 21014 1
21006 21017 1
21007 21011 1
21007 21012 1
21007 21015 1
21008 21013 1
21008 21014 1
21008 21017 1
21009 21011 1
21009 21012 1
21009 21016 1
21010 21015 1
21010 21016 1
21011 21013 1
21011 21014 1
21012 21017 1
21013 21015 1
21013 21016 1
21015 21017 1
21018 21021 1
21018 21022 1
21018 21026 1
21018 21029 1
21019 21023 1
21019 21024 1
21019 21027 1
21020 21025 1
21020 21026 1
21020 21029 1
21021 21023 1
21021 21024 1
21021 21028 1
21022 21027 1
21022 21028 1
21023 21025 1
21023 21026 1
21024 21029 1
21025 21027 1
21025 21028 1
21027 21029 1
21030 21033 1
21030 21034 1
21030 21038 1
21030 21041 1
21031 21035 1
21031 21036 1
21031 21039 1
21032 21037 1
21032 21038 1
21032 21041 1
21033 21035 1
21033 21036 1
21033 21040 1
21034 21039 1
21034 21040 1
21035 21037 1
21035 21038 1
21036 21041 1
21037 21039 1
21037 21040 1
21039 21041 1
21042 21045 1
21042 21046 1
21042 21050 1
21042 21053 1
21043 21047 1
21043 21048 1
21043 21051 1
21044 21049 1
21044 21050 1
21044 21053 1
21045 21047 1
21045 21048 1
21045 21052 1
21046 21051 1
21046 21052 1
21047 21049 1
21047 21050 1
21048 21053 1
21049 21051 1
21049 21052 1
21051 21053 1
21054 21057 1
21054 21058 1
21054 21062 1
21054 21065 1
21055 21059 1
21055 21060 1
21055 21063 1
21056 21061 1
21056 21062 1
21056 21065 1
21057 21059 1
21057 21060 1
21057 21064 1
21058 21063 1
21058 21064 1
21059 21061 1
21059 21062 1
21060 21065 1
21061 21063 1
21061 21064 1
21063 21065 1
21066 21069 1
21066 21070 1
21066 21074 1
21066 21077 1
21067 21071 1
21067 21072 1
21067 21075 1
21068 21073 1
21068 21074 1
21068 21077 1
21069 21071 1
21069 21072 1
21069 21076 1
21070 21075 1
21070 21076 1
21071 21073 1
21071 21074 1
21072 21077 1
21073 21075 1
21073 21076 1
21075 21077 1
21078 21081 1
21078 21082 1
21078 21086 1
21078 21089 1
21079 21083 1
21079 21084 1
21079 21087 1
21080 21085 1
21080 21086 1
21080 21089 1
21081 21083 1
21081 21084 1
21081 21088 1
21082 21087 1
21082 21088 1
21083 21085 1
21083 21086 1
21084 21089 1
21085 21087 1
21085 21088 1
21087 21089 1
21090 21093 1
21090 21094 1
21090 21098 1
21090 21101 1
21091 21095 1
21091 21096 1
21091 21099 1
21092 21097 1
21092 21098 1
21092 21101 1
21093 21095 1
21093 21096 1
21093 21100 1
21094 21099 1
21094 21100 1
21095 21097 1
21095 21098 1
21096 21101 1
21097 21099 1
21097 21100 1
21099 21101 1
21102 21105 1
21102 21106 1
21102 21110 1
21102 21113 1
21103 21107 1
21103 21108 1
21103 21111 1
21104 21109 1
21104 21110 1
21104 21113 1
21105 21107 1
21105 21108 1
21105 21112 1
21106 21111 1
21106 21112 1
21107 21109 1
21107 21110 1
21108 21113 1
21109 21111 1
21109 21112 1
21111 21113 1
21114 21117 1
21114 21118 1
21114 21122 1
21114 21125 1
21115 21119 1
21115 21120 1
21115 21123 1
21116 21121 1
21116 21122 1
21116 21125 1
21117 21119 1
21117 21120 1
21117 21124 1
21118 21123 1
21118 21124 1
21119 21121 1
21119 21122 1
21120 21125 1
21121 21123 1
21121 21124 1
21123 21125 1
21126 21129 1
21126 21130 1
21126 21134 1
21126 21137 1
21127 21131 1
21127 21132 1
21127 21135 1
21128 21133 1
21128 21134 1
21128 21137 1
21129 21131 1
21129 21132 1
21129 21136 1
21130 21135 1
21130 21136 1
21131 21133 1
21131 21134 1
21132 21137 1
21133 21135 1
21133 21136 1
21135 21137 1
21138 21141 1
21138 21142 1
21138 21146 1
21138 21149 1
21139 21143 1
21139 21144 1
21139 21147 1
21140 21145 1
21140 21146 1
21140 21149 1
21141 21143 1
21141 21144 1
21141 21148 1
21142 21147 1
21142 21148 1
21143 21145 1
21143 21146 1
21144 21149 1
21145 21147 1
21145 21148 1
21147 21149 1
21150 21153 1
21150 21154 1
21150 21158 1
21150 21161 1
21151 21155 1
21151 21156 1
21151 21159 1
21152 21157 1
21152 21158 1
21152 21161 1
21153 21155 1
21153 21156 1
21153 21160 1
21154 21159 1
21154 21160 1
21155 21157 1
21155 21158 1
21156 21161 1
21157 21159 1
21157 21160 1
21159 21161 1
21162 21165 1
21162 21166 1
21162 21170 1
21162 21173 1
21163 21167 1
21163 21168 1
21163 21171 1
21164 21169 1
21164 21170 1
21164 21173 1
21165 21167 1
21165 21168 1
21165 21172 1
21166 21171 1
21166 21172 1
21167 21169 1
21167 21170 1
21168 21173 1
21169 21171 1
21169 21172 1
21171 21173 1
21174 21177 1
21174 21178 1
21174 21182 1
21174 21185 1
21175 21179 1
21175 21180 1
21175 21183 1
21176 21181 1
21176 21182 1
21176 21185 1
21177 21179 1
21177 21180 1
21177 21184 1
21178 21183 1
21178 21184 1
21179 21181 1
21179 21182 1
21180 21185 1
21181 21183 1
21181 21184 1
21183 21185 1
21186 21189 1
21186 21190 1
21186 21194 1
21186 21197 1
21187 21191 1
21187 21192 1
21187 21195 1
21188 21193 1
21188 21194 1
21188 21197 1
21189 21191 1
21189 21192 1
21189 21196 1
21190 21195 1
21190 21196 1
21191 21193 1
21191 21194 1
21192 21197 1
21193 21195 1
21193 21196 1
21195 21197 1
21198 21201 1
21198 21202 1
21198 21206 1
21198 21209 1
21199 21203 1
21199 21204 1
21199 21207 1
21200 21205 1
21200 21206 1
21200 21209 1
21201 21203 1
21201 21204 1
21201 21208 1
21202 21207 1
21202 21208 1
21203 21205 1
21203 21206 1
21204 21209 1
21205 21207 1
21205 21208 1
21207 21209 1
21210 21213 1
21210 21214 1
21210 21218 1
21210 21221 1
21211 21215 1
21211 21216 1
21211 21219 1
21212 21217 1
21212 21218 1
21212 21221 1
21213 21215 1
21213 21216 1
21213 21220 1
21214 21219 1
21214 21220 1
21215 21217 1
21215 21218 1
21216 21221 1
21217 21219 1
21217 21220 1
21219 21221 1
21222 21225 1
21222 21226 1
21222 21230 1
21222 21233 1
21223 21227 1
21223 21228 1
21223 21231 1
21224 21229 1
21224 21230 1
21224 21233 1
21225 21227 1
21225 21228 1
21225 21232 1
21226 21231 1
21226 21232 1
21227 21229 1
21227 21230 1
21228 21233 1
21229 21231 1
21229 21232 1
21231 21233 1
21234 21237 1
21234 21238 1
21234 21242 1
21234 21245 1
21235 21239 1
21235 21240 1
21235 21243 1
21236 21241 1
21236 21242 1
21236 21245 1
21237 21239 1
21237 21240 1
21237 21244 1
21238 21243 1
21238 21244 1
21239 21241 1
21239 21242 1
21240 21245 1
21241 21243 1
21241 21244 1
21243 21245 1
21246 21249 1
21246 21250 1
21246 21254 1
21246 21257 1
21247 21251 1
21247 21252 1
21247 21255 1
21248 21253 1
21248 21254 1
21248 21257 1
21249 21251 1
21249 21252 1
21249 21256 1
21250 21255 1
21250 21256 1
21251 21253 1
21251 21254 1
21252 21257 1
21253 21255 1
21253 21256 1
21255 21257 1
21258 21261 1
21258 21262 1
21258 21266 1
21258 21269 1
21259 21263 1
21259 21264 1
21259 21267 1
21260 21265 1
21260 21266 1
21260 21269 1
21261 21263 1
21261 21264 1
21261 21268 1
21262 21267 1
21262 21268 1
21263 21265 1
21263 21266 1
21264 21269 1
21265 21267 1
21265 21268 1
21267 21269 1
21270 21273 1
21270 21274 1
21270 21278 1
21270 21281 1
21271 21275 1
21271 21276 1
21271 21279 1
21272 21277 1
21272 21278 1
21272 21281 1
21273 21275 1
21273 21276 1
21273 21280 1
21274 21279 1
21274 21280 1
21275 21277 1
21275 21278 1
21276 21281 1
21277 21279 1
21277 21280 1
21279 21281 1
21282 21285 1
21282 21286 1
21282 21290 1
21282 21293 1
21283 21287 1
21283 21288 1
21283 21291 1
21284 21289 1
21284 21290 1
21284 21293 1
21285 21287 1
21285 21288 1
21285 21292 1
21286 21291 1
21286 21292 1
21287 21289 1
21287 21290 1
21288 21293 1
21289 21291 1
21289 21292 1
21291 21293 1
21294 21297 1
21294 21298 1
21294 21302 1
21294 21305 1
21295 21299 1
21295 21300 1
21295 21303 1
21296 21301 1
21296 21302 1
21296 21305 1
21297 21299 1
21297 21300 1
21297 21304 1
21298 21303 1
21298 21304 1
21299 21301 1
21299 21302 1
21300 21305 1
21301 21303 1
21301 21304 1
21303 21305 1
21306 21309 1
21306 21310 1
21306 21314 1
21306 21317 1
21307 21311 1
21307 21312 1
21307 21315 1
21308 21313 1
21308 21314 1
21308 21317 1
21309 21311 1
21309 21312 1
21309 21316 1
21310 21315 1
21310 21316 1
21311 21313 1
21311 21314 1
21312 21317 1
21313 21315 1
21313 21316 1
21315 21317 1
21318 21321 1
21318 21322 1
21318 21326 1
21318 21329 1
21319 21323 1
21319 21324 1
21319 21327 1
21320 21325 1
21320 21326 1
21320 21329 1
21321 21323 1
21321 21324 1
21321 21328 1
21322 21327 1
21322 21328 1
21323 21325 1
21323 21326 1
21324 21329 1
21325 21327 1
21325 21328 1
21327 21329 1
21330 21333 1
21330 21334 1
21330 21338 1
21330 21341 1
21331 21335 1
21331 21336 1
21331 21339 1
21332 21337 1
21332 21338 1
21332 21341 1
21333 21335 1
21333 21336 1
21333 21340 1
21334 21339 1
21334 21340 1
21335 21337 1
21335 21338 1
21336 21341 1
21337 21339 1
21337 21340 1
21339 21341 1
21342 21345 1
21342 21346 1
21342 21350 1
21342 21353 1
21343 21347 1
21343 21348 1
21343 21351 1
21344 21349 1
21344 21350 1
21344 21353 1
21345 21347 1
21345 21348 1
21345 21352 1
21346 21351 1
21346 21352 1
21347 21349 1
21347 21350 1
21348 21353 1
21349 21351 1
21349 21352 1
21351 21353 1
21354 21357 1
21354 21358 1
21354 21362 1
21354 21365 1
21355 21359 1
21355 21360 1
21355 21363 1
21356 21361 1
21356 21362 1
21356 21365 1
21357 21359 1
21357 21360 1
21357 21364 1
21358 21363 1
21358 21364 1
21359 21361 1
21359 21362 1
21360 21365 1
21361 21363 1
21361 21364 1
21363 21365 1
21366 21369 1
21366 21370 1
21366 21374 1
21366 21377 1
21367 21371 1
21367 21372 1
21367 21375 1
21368 21373 1
21368 21374 1
21368 21377 1
21369 21371 1
21369 21372 1
21369 21376 1
21370 21375 1
21370 21376 1
21371 21373 1
21371 21374 1
21372 21377 1
21373 21375 1
21373 21376 1
21375 21377 1
21378 21381 1
21378 21382 1
21378 21386 1
21378 21389 1
21379 21383 1
21379 21384 1
21379 21387 1
21380 21385 1
21380 21386 1
21380 21389 1
21381 21383 1
21381 21384 1
21381 21388 1
21382 21387 1
21382 21388 1
21383 21385 1
21383 21386 1
21384 21389 1
21385 21387 1
21385 21388 1
21387 21389 1
21390 21393 1
21390 21394 1
21390 21398 1
21390 21401 1
21391 21395 1
21391 21396 1
21391 21399 1
21392 21397 1
21392 21398 1
21392 21401 1
21393 21395 1
21393 21396 1
21393 21400 1
21394 21399 1
21394 21400 1
21395 21397 1
21395 21398 1
21396 21401 1
21397 21399 1
21397 21400 1
21399 21401 1
21402 21405 1
21402 21406 1
21402 21410 1
21402 21413 1
21403 21407 1
21403 21408 1
21403 21411 1
21404 21409 1
21404 21410 1
21404 21413 1
21405 21407 1
21405 21408 1
21405 21412 1
21406 21411 1
21406 21412 1
21407 21409 1
21407 21410 1
21408 21413 1
21409 21411 1
21409 21412 1
21411 21413 1
21414 21417 1
21414 21418 1
21414 21422 1
21414 21425 1
21415 21419 1
21415 21420 1
21415 21423 1
21416 21421 1
21416 21422 1
21416 21425 1
21417 21419 1
21417 21420 1
21417 21424 1
21418 21423 1
21418 21424 1
21419 21421 1
21419 21422 1
21420 21425 1
21421 21423 1
21421 21424 1
21423 21425 1
21426 21429 1
21426 21430 1
21426 21434 1
21426 21437 1
21427 21431 1
21427 21432 1
21427 21435 1
21428 21433 1
21428 21434 1
21428 21437 1
21429 21431 1
21429 21432 1
21429 21436 1
21430 21435 1
21430 21436 1
21431 21433 1
21431 21434 1
21432 21437 1
21433 21435 1
21433 21436 1
21435 21437 1
21438 21441 1
21438 21442 1
21438 21446 1
21438 21449 1
21439 21443 1
21439 21444 1
21439 21447 1
21440 21445 1
21440 21446 1
21440 21449 1
21441 21443 1
21441 21444 1
21441 21448 1
21442 21447 1
21442 21448 1
21443 21445 1
21443 21446 1
21444 21449 1
21445 21447 1
21445 21448 1
21447 21449 1
21450 21453 1
21450 21454 1
21450 21458 1
21450 21461 1
21451 21455 1
21451 21456 1
21451 21459 1
21452 21457 1
21452 21458 1
21452 21461 1
21453 21455 1
21453 21456 1
21453 21460 1
21454 21459 1
21454 21460 1
21455 21457 1
21455 21458 1
21456 21461 1
21457 21459 1
21457 21460 1
21459 21461 1
21462 21465 1
21462 21466 1
21462 21470 1
21462 21473 1
21463 21467 1
21463 21468 1
21463 21471 1
21464 21469 1
21464 21470 1
21464 21473 1
21465 21467 1
21465 21468 1
21465 21472 1
21466 21471 1
21466 21472 1
21467 21469 1
21467 21470 1
21468 21473 1
21469 21471 1
21469 21472 1
21471 21473 1
21474 21477 1
21474 21478 1
21474 21482 1
21474 21485 1
21475 21479 1
21475 21480 1
21475 21483 1
21476 21481 1
21476 21482 1
21476 21485 1
21477 21479 1
21477 21480 1
21477 21484 1
21478 21483 1
21478 21484 1
21479 21481 1
21479 21482 1
21480 21485 1
21481 21483 1
21481 21484 1
21483 21485 1
21486 21489 1
21486 21490 1
21486 21494 1
21486 21497 1
21487 21491 1
21487 21492 1
21487 21495 1
21488 21493 1
21488 21494 1
21488 21497 1
21489 21491 1
21489 21492 1
21489 21496 1
21490 21495 1
21490 21496 1
21491 21493 1
21491 21494 1
21492 21497 1
21493 21495 1
21493 21496 1
21495 21497 1
21498 21501 1
21498 21502 1
21498 21506 1
21498 21509 1
21499 21503 1
21499 21504 1
21499 21507 1
21500 21505 1
21500 21506 1
21500 21509 1
21501 21503 1
21501 21504 1
21501 21508 1
21502 21507 1
21502 21508 1
21503 21505 1
21503 21506 1
21504 21509 1
21505 21507 1
21505 21508 1
21507 21509 1
21510 21513 1
21510 21514 1
21510 21518 1
21510 21521 1
21511 21515 1
21511 21516 1
21511 21519 1
21512 21517 1
21512 21518 1
21512 21521 1
21513 21515 1
21513 21516 1
21513 21520 1
21514 21519 1
21514 21520 1
21515 21517 1
21515 21518 1
21516 21521 1
21517 21519 1
21517 21520 1
21519 21521 1
21522 21525 1
21522 21526 1
21522 21530 1
21522 21533 1
21523 21527 1
21523 21528 1
21523 21531 1
21524 21529 1
21524 21530 1
21524 21533 1
21525 21527 1
21525 21528 1
21525 21532 1
21526 21531 1
21526 21532 1
21527 21529 1
21527 21530 1
21528 21533 1
21529 21531 1
21529 21532 1
21531 21533 1
21534 21537 1
21534 21538 1
21534 21542 1
21534 21545 1
21535 21539 1
21535 21540 1
21535 21543 1
21536 21541 1
21536 21542 1
21536 21545 1
21537 21539 1
21537 21540 1
21537 21544 1
21538 21543 1
21538 21544 1
21539 21541 1
21539 21542 1
21540 21545 1
21541 21543 1
21541 21544 1
21543 21545 1
21546 21549 1
21546 21550 1
21546 21554 1
21546 21557 1
21547 21551 1
21547 21552 1
21547 21555 1
21548 21553 1
21548 21554 1
21548 21557 1
21549 21551 1
21549 21552 1
21549 21556 1
21550 21555 1
21550 21556 1
21551 21553 1
21551 21554 1
21552 21557 1
21553 21555 1
21553 21556 1
21555 21557 1
21558 21561 1
21558 21562 1
21558 21566 1
21558 21569 1
21559 21563 1
21559 21564 1
21559 21567 1
21560 21565 1
21560 21566 1
21560 21569 1
21561 21563 1
21561 21564 1
21561 21568 1
21562 21567 1
21562 21568 1
21563 21565 1
21563 21566 1
21564 21569 1
21565 21567 1
21565 21568 1
21567 21569 1
21570 21573 1
21570 21574 1
21570 21578 1
21570 21581 1
21571 21575 1
21571 21576 1
21571 21579 1
21572 21577 1
21572 21578 1
21572 21581 1
21573 21575 1
21573 21576 1
21573 21580 1
21574 21579 1
21574 21580 1
21575 21577 1
21575 21578 1
21576 21581 1
21577 21579 1
21577 21580 1
21579 21581 1
21582 21585 1
21582 21586 1
21582 21590 1
21582 21593 1
21583 21587 1
21583 21588 1
21583 21591 1
21584 21589 1
21584 21590 1
21584 21593 1
21585 21587 1
21585 21588 1
21585 21592 1
21586 21591 1
21586 21592 1
21587 21589 1
21587 21590 1
21588 21593 1
21589 21591 1
21589 21592 1
21591 21593 1
21594 21597 1
21594 21598 1
21594 21602 1
21594 21605 1
21595 21599 1
21595 21600 1
21595 21603 1
21596 21601 1
21596 21602 1
21596 21605 1
21597 21599 1
21597 21600 1
21597 21604 1
21598 21603 1
21598 21604 1
21599 21601 1
21599 21602 1
21600 21605 1
21601 21603 1
21601 21604 1
21603 21605 1
21606 21609 1
21606 21610 1
21606 21614 1
21606 21617 1
21607 21611 1
21607 21612 1
21607 21615 1
21608 21613 1
21608 21614 1
21608 21617 1
21609 21611 1
21609 21612 1
21609 21616 1
21610 21615 1
21610 21616 1
21611 21613 1
21611 21614 1
21612 21617 1
21613 21615 1
21613 21616 1
21615 21617 1
21618 21621 1
21618 21622 1
21618 21626 1
21618 21629 1
21619 21623 1
21619 21624 1
21619 21627 1
21620 21625 1
21620 21626 1
21620 21629 1
21621 21623 1
21621 21624 1
21621 21628 1
21622 21627 1
21622 21628 1
21623 21625 1
21623 21626 1
21624 21629 1
21625 21627 1
21625 21628 1
21627 21629 1
21630 21633 1
21630 21634 1
21630 21638 1
21630 21641 1
21631 21635 1
21631 21636 1
21631 21639 1
21632 21637 1
21632 21638 1
21632 21641 1
21633 21635 1
21633 21636 1
21633 21640 1
21634 21639 1
21634 21640 1
21635 21637 1
21635 21638 1
21636 21641 1
21637 21639 1
21637 21640 1
21639 21641 1
21642 21645 1
21642 21646 1
21642 21650 1
21642 21653 1
21643 21647 1
21643 21648 1
21643 21651 1
21644 21649 1
21644 21650 1
21644 21653 1
21645 21647 1
21645 21648 1
21645 21652 1
21646 21651 1
21646 21652 1
21647 21649 1
21647 21650 1
21648 21653 1
21649 21651 1
21649 21652 1
21651 21653 1
21654 21657 1
21654 21658 1
21654 21662 1
21654 21665 1
21655 21659 1
21655 21660 1
21655 21663 1
21656 21661 1
21656 21662 1
21656 21665 1
21657 21659 1
21657 21660 1
21657 21664 1
21658 21663 1
21658 21664 1
21659 21661 1
21659 21662 1
21660 21665 1
21661 21663 1
21661 21664 1
21663 21665 1
21666 21669 1
21666 21670 1
21666 21674 1
21666 21677 1
21667 21671 1
21667 21672 1
21667 21675 1
21668 21673 1
21668 21674 1
21668 21677 1
21669 21671 1
21669 21672 1
21669 21676 1
21670 21675 1
21670 21676 1
21671 21673 1
21671 21674 1
21672 21677 1
21673 21675 1
21673 21676 1
21675 21677 1
21678 21681 1
21678 21682 1
21678 21686 1
21678 21689 1
21679 21683 1
21679 21684 1
21679 21687 1
21680 21685 1
21680 21686 1
21680 21689 1
21681 21683 1
21681 21684 1
21681 21688 1
21682 21687 1
21682 21688 1
21683 21685 1
21683 21686 1
21684 21689 1
21685 21687 1
21685 21688 1
21687 21689 1
21690 21693 1
21690 21694 1
21690 21698 1
21690 21701 1
21691 21695 1
21691 21696 1
21691 21699 1
21692 21697 1
21692 21698 1
21692 21701 1
21693 21695 1
21693 21696 1
21693 21700 1
21694 21699 1
21694 21700 1
21695 21697 1
21695 21698 1
21696 21701 1
21697 21699 1
21697 21700 1
21699 21701 1
21702 21705 1
21702 21706 1
21702 21710 1
21702 21713 1
21703 21707 1
21703 21708 1
21703 21711 1
21704 21709 1
21704 21710 1
21704 21713 1
21705 21707 1
21705 21708 1
21705 21712 1
21706 21711 1
21706 21712 1
21707 21709 1
21707 21710 1
21708 21713 1
21709 21711 1
21709 21712 1
21711 21713 1
21714 21717 1
21714 21718 1
21714 21722 1
21714 21725 1
21715 21719 1
21715 21720 1
21715 21723 1
21716 21721 1
21716 21722 1
21716 21725 1
21717 21719 1
21717 21720 1
21717 21724 1
21718 21723 1
21718 21724 1
21719 21721 1
21719 21722 1
21720 21725 1
21721 21723 1
21721 21724 1
21723 21725 1
21726 21729 1
21726 21730 1
21726 21734 1
21726 21737 1
21727 21731 1
21727 21732 1
21727 21735 1
21728 21733 1
21728 21734 1
21728 21737 1
21729 21731 1
21729 21732 1
21729 21736 1
21730 21735 1
21730 21736 1
21731 21733 1
21731 21734 1
21732 21737 1
21733 21735 1
21733 21736 1
21735 21737 1
21738 21741 1
21738 21742 1
21738 21746 1
21738 21749 1
21739 21743 1
21739 21744 1
21739 21747 1
21740 21745 1
21740 21746 1
21740 21749 1
21741 21743 1
21741 21744 1
21741 21748 1
21742 21747 1
21742 21748 1
21743 21745 1
21743 21746 1
21744 21749 1
21745 21747 1
21745 21748 1
21747 21749 1
21750 21753 1
21750 21754 1
21750 21758 1
21750 21761 1
21751 21755 1
21751 21756 1
21751 21759 1
21752 21757 1
21752 21758 1
21752 21761 1
21753 21755 1
21753 21756 1
21753 21760 1
21754 21759 1
21754 21760 1
21755 21757 1
21755 21758 1
21756 21761 1
21757 21759 1
21757 21760 1
21759 21761 1
21762 21765 1
21762 21766 1
21762 21770 1
21762 21773 1
21763 21767 1
21763 21768 1
21763 21771 1
21764 21769 1
21764 21770 1
21764 21773 1
21765 21767 1
21765 21768 1
21765 21772 1
21766 21771 1
21766 21772 1
21767 21769 1
21767 21770 1
21768 21773 1
21769 21771 1
21769 21772 1
21771 21773 1
21774 21777 1
21774 21778 1
21774 21782 1
21774 21785 1
21775 21779 1
21775 21780 1
21775 21783 1
21776 21781 1
21776 21782 1
21776 21785 1
21777 21779 1
21777 21780 1
21777 21784 1
21778 21783 1
21778 21784 1
21779 21781 1
21779 21782 1
21780 21785 1
21781 21783 1
21781 21784 1
21783 21785 1
21786 21789 1
21786 21790 1
21786 21794 1
21786 21797 1
21787 21791 1
21787 21792 1
21787 21795 1
21788 21793 1
21788 21794 1
21788 21797 1
21789 21791 1
21789 21792 1
21789 21796 1
21790 21795 1
21790 21796 1
21791 21793 1
21791 21794 1
21792 21797 1
21793 21795 1
21793 21796 1
21795 21797 1
21798 21801 1
21798 21802 1
21798 21806 1
21798 21809 1
21799 21803 1
21799 21804 1
21799 21807 1
21800 21805 1
21800 21806 1
21800 21809 1
21801 21803 1
21801 21804 1
21801 21808 1
21802 21807 1
21802 21808 1
21803 21805 1
21803 21806 1
21804 21809 1
21805 21807 1
21805 21808 1
21807 21809 1
21810 21813 1
21810 21814 1
21810 21818 1
21810 21821 1
21811 21815 1
21811 21816 1
21811 21819 1
21812 21817 1
21812 21818 1
21812 21821 1
21813 21815 1
21813 21816 1
21813 21820 1
21814 21819 1
21814 21820 1
21815 21817 1
21815 21818 1
21816 21821 1
21817 21819 1
21817 21820 1
21819 21821 1
21822 21825 1
21822 21826 1
21822 21830 1
21822 21833 1
21823 21827 1
21823 21828 1
21823 21831 1
21824 21829 1
21824 21830 1
21824 21833 1
21825 21827 1
21825 21828 1
21825 21832 1
21826 21831 1
21826 21832 1
21827 21829 1
21827 21830 1
21828 21833 1
21829 21831 1
21829 21832 1
21831 21833 1
21834 21837 1
21834 21838 1
21834 21842 1
21834 21845 1
21835 21839 1
21835 21840 1
21835 21843 1
21836 21841 1
21836 21842 1
21836 21845 1
21837 21839 1
21837 21840 1
21837 21844 1
21838 21843 1
21838 21844 1
21839 21841 1
21839 21842 1
21840 21845 1
21841 21843 1
21841 21844 1
21843 21845 1
21846 21849 1
21846 21850 1
21846 21854 1
21846 21857 1
21847 21851 1
21847 21852 1
21847 21855 1
21848 21853 1
21848 21854 1
21848 21857 1
21849 21851 1
21849 21852 1
21849 21856 1
21850 21855 1
21850 21856 1
21851 21853 1
21851 21854 1
21852 21857 1
21853 21855 1
21853 21856 1
21855 21857 1
21858 21861 1
21858 21862 1
21858 21866 1
21858 21869 1
21859 21863 1
21859 21864 1
21859 21867 1
21860 21865 1
21860 21866 1
21860 21869 1
21861 21863 1
21861 21864 1
21861 21868 1
21862 21867 1
21862 21868 1
21863 21865 1
21863 21866 1
21864 21869 1
21865 21867 1
21865 21868 1
21867 21869 1
21870 21873 1
21870 21874 1
21870 21878 1
21870 21881 1
21871 21875 1
21871 21876 1
21871 21879 1
21872 21877 1
21872 21878 1
21872 21881 1
21873 21875 1
21873 21876 1
21873 21880 1
21874 21879 1
21874 21880 1
21875 21877 1
21875 21878 1
21876 21881 1
21877 21879 1
21877 21880 1
21879 21881 1
21882 21885 1
21882 21886 1
21882 21890 1
21882 21893 1
21883 21887 1
21883 21888 1
21883 21891 1
21884 21889 1
21884 21890 1
21884 21893 1
21885 21887 1
21885 21888 1
21885 21892 1
21886 21891 1
21886 21892 1
21887 21889 1
21887 21890 1
21888 21893 1
21889 21891 1
21889 21892 1
21891 21893 1
21894 21897 1
21894 21898 1
21894 21902 1
21894 21905 1
21895 21899 1
21895 21900 1
21895 21903 1
21896 21901 1
21896 21902 1
21896 21905 1
21897 21899 1
21897 21900 1
21897 21904 1
21898 21903 1
21898 21904 1
21899 21901 1
21899 21902 1
21900 21905 1
21901 21903 1
21901 21904 1
21903 21905 1
21906 21909 1
21906 21910 1
21906 21914 1
21906 21917 1
21907 21911 1
21907 21912 1
21907 21915 1
21908 21913 1
21908 21914 1
21908 21917 1
21909 21911 1
21909 21912 1
21909 21916 1
21910 21915 1
21910 21916 1
21911 21913 1
21911 21914 1
21912 21917 1
21913 21915 1
21913 21916 1
21915 21917 1
21918 21921 1
21918 21922 1
21918 21926 1
21918 21929 1
21919 21923 1
21919 21924 1
21919 21927 1
21920 21925 1
21920 21926 1
21920 21929 1
21921 21923 1
21921 21924 1
21921 21928 1
21922 21927 1
21922 21928 1
21923 21925 1
21923 21926 1
21924 21929 1
21925 21927 1
21925 21928 1
21927 21929 1
21930 21933 1
21930 21934 1
21930 21938 1
21930 21941 1
21931 21935 1
21931 21936 1
21931 21939 1
21932 21937 1
21932 21938 1
21932 21941 1
21933 21935 1
21933 21936 1
21933 21940 1
21934 21939 1
21934 21940 1
21935 21937 1
21935 21938 1
21936 21941 1
21937 21939 1
21937 21940 1
21939 21941 1
21942 21945 1
21942 21946 1
21942 21950 1
21942 21953 1
21943 21947 1
21943 21948 1
21943 21951 1
21944 21949 1
21944 21950 1
21944 21953 1
21945 21947 1
21945 21948 1
21945 21952 1
21946 21951 1
21946 21952 1
21947 21949 1
21947 21950 1
21948 21953 1
21949 21951 1
21949 21952 1
21951 21953 1
21954 21957 1
21954 21958 1
21954 21962 1
21954 21965 1
21955 21959 1
21955 21960 1
21955 21963 1
21956 21961 1
21956 21962 1
21956 21965 1
21957 21959 1
21957 21960 1
21957 21964 1
21958 21963 1
21958 21964 1
21959 21961 1
21959 21962 1
21960 21965 1
21961 21963 1
21961 21964 1
21963 21965 1
21966 21969 1
21966 21970 1
21966 21974 1
21966 21977 1
21967 21971 1
21967 21972 1
21967 21975 1
21968 21973 1
21968 21974 1
21968 21977 1
21969 21971 1
21969 21972 1
21969 21976 1
21970 21975 1
21970 21976 1
21971 21973 1
21971 21974 1
21972 21977 1
21973 21975 1
21973 21976 1
21975 21977 1
21978 21981 1
21978 21982 1
21978 21986 1
21978 21989 1
21979 21983 1
21979 21984 1
21979 21987 1
21980 21985 1
21980 21986 1
21980 21989 1
21981 21983 1
21981 21984 1
21981 21988 1
21982 21987 1
21982 21988 1
21983 21985 1
21983 21986 1
21984 21989 1
21985 21987 1
21985 21988 1
21987 21989 1
21990 21993 1
21990 21994 1
21990 21998 1
21990 22001 1
21991 21995 1
21991 21996 1
21991 21999 1
21992 21997 1
21992 21998 1
21992 22001 1
21993 21995 1
21993 21996 1
21993 22000 1
21994 21999 1
21994 22000 1
21995 21997 1
21995 21998 1
21996 22001 1
21997 21999 1
21997 22000 1
21999 22001 1
22002 22005 1
22002 22006 1
22002 22010 1
22002 22013 1
22003 22007 1
22003 22008 1
22003 22011 1
22004 22009 1
22004 22010 1
22004 22013 1
22005 22007 1
22005 22008 1
22005 22012 1
22006 22011 1
22006 22012 1
22007 22009 1
22007 22010 1
22008 22013 1
22009 22011 1
22009 22012 1
22011 22013 1
22014 22017 1
22014 22018 1
22014 22022 1
22014 22025 1
22015 22019 1
22015 22020 1
22015 22023 1
22016 22021 1
22016 22022 1
22016 22025 1
22017 22019 1
22017 22020 1
22017 22024 1
22018 22023 1
22018 22024 1
22019 22021 1
22019 22022 1
22020 22025 1
22021 22023 1
22021 22024 1
22023 22025 1
22026 22029 1
22026 22030 1
22026 22034 1
22026 22037 1
22027 22031 1
22027 22032 1
22027 22035 1
22028 22033 1
22028 22034 1
22028 22037 1
22029 22031 1
22029 22032 1
22029 22036 1
22030 22035 1
22030 22036 1
22031 22033 1
22031 22034 1
22032 22037 1
22033 22035 1
22033 22036 1
22035 22037 1
22038 22041 1
22038 22042 1
22038 22046 1
22038 22049 1
22039 22043 1
22039 22044 1
22039 22047 1
22040 22045 1
22040 22046 1
22040 22049 1
22041 22043 1
22041 22044 1
22041 22048 1
22042 22047 1
22042 22048 1
22043 22045 1
22043 22046 1
22044 22049 1
22045 22047 1
22045 22048 1
22047 22049 1
22050 22053 1
22050 22054 1
22050 22058 1
22050 22061 1
22051 22055 1
22051 22056 1
22051 22059 1
22052 22057 1
22052 22058 1
22052 22061 1
22053 22055 1
22053 22056 1
22053 22060 1
22054 22059 1
22054 22060 1
22055 22057 1
22055 22058 1
22056 22061 1
22057 22059 1
22057 22060 1
22059 22061 1
22062 22065 1
22062 22066 1
22062 22070 1
22062 22073 1
22063 22067 1
22063 22068 1
22063 22071 1
22064 22069 1
22064 22070 1
22064 22073 1
22065 22067 1
22065 22068 1
22065 22072 1
22066 22071 1
22066 22072 1
22067 22069 1
22067 22070 1
22068 22073 1
22069 22071 1
22069 22072 1
22071 22073 1
22074 22077 1
22074 22078 1
22074 22082 1
22074 22085 1
22075 22079 1
22075 22080 1
22075 22083 1
22076 22081 1
22076 22082 1
22076 22085 1
22077 22079 1
22077 22080 1
22077 22084 1
22078 22083 1
22078 22084 1
22079 22081 1
22079 22082 1
22080 22085 1
22081 22083 1
22081 22084 1
22083 22085 1
22086 22089 1
22086 22090 1
22086 22094 1
22086 22097 1
22087 22091 1
22087 22092 1
22087 22095 1
22088 22093 1
22088 22094 1
22088 22097 1
22089 22091 1
22089 22092 1
22089 22096 1
22090 22095 1
22090 22096 1
22091 22093 1
22091 22094 1
22092 22097 1
22093 22095 1
22093 22096 1
22095 22097 1
22098 22101 1
22098 22102 1
22098 22106 1
22098 22109 1
22099 22103 1
22099 22104 1
22099 22107 1
22100 22105 1
22100 22106 1
22100 22109 1
22101 22103 1
22101 22104 1
22101 22108 1
22102 22107 1
22102 22108 1
22103 22105 1
22103 22106 1
22104 22109 1
22105 22107 1
22105 22108 1
22107 22109 1
22110 22113 1
22110 22114 1
22110 22118 1
22110 22121 1
22111 22115 1
22111 22116 1
22111 22119 1
22112 22117 1
22112 22118 1
22112 22121 1
22113 22115 1
22113 22116 1
22113 22120 1
22114 22119 1
22114 22120 1
22115 22117 1
22115 22118 1
22116 22121 1
22117 22119 1
22117 22120 1
22119 22121 1
22122 22125 1
22122 22126 1
22122 22130 1
22122 22133 1
22123 22127 1
22123 22128 1
22123 22131 1
22124 22129 1
22124 22130 1
22124 22133 1
22125 22127 1
22125 22128 1
22125 22132 1
22126 22131 1
22126 22132 1
22127 22129 1
22127 22130 1
22128 22133 1
22129 22131 1
22129 22132 1
22131 22133 1
22134 22137 1
22134 22138 1
22134 22142 1
22134 22145 1
22135 22139 1
22135 22140 1
22135 22143 1
22136 22141 1
22136 22142 1
22136 22145 1
22137 22139 1
22137 22140 1
22137 22144 1
22138 22143 1
22138 22144 1
22139 22141 1
22139 22142 1
22140 22145 1
22141 22143 1
22141 22144 1
22143 22145 1
22146 22149 1
22146 22150 1
22146 22154 1
22146 22157 1
22147 22151 1
22147 22152 1
22147 22155 1
22148 22153 1
22148 22154 1
22148 22157 1
22149 22151 1
22149 22152 1
22149 22156 1
22150 22155 1
22150 22156 1
22151 22153 1
22151 22154 1
22152 22157 1
22153 22155 1
22153 22156 1
22155 22157 1
22158 22161 1
22158 22162 1
22158 22166 1
22158 22169 1
22159 22163 1
22159 22164 1
22159 22167 1
22160 22165 1
22160 22166 1
22160 22169 1
22161 22163 1
22161 22164 1
22161 22168 1
22162 22167 1
22162 22168 1
22163 22165 1
22163 22166 1
22164 22169 1
22165 22167 1
22165 22168 1
22167 22169 1
22170 22173 1
22170 22174 1
22170 22178 1
22170 22181 1
22171 22175 1
22171 22176 1
22171 22179 1
22172 22177 1
22172 22178 1
22172 22181 1
22173 22175 1
22173 22176 1
22173 22180 1
22174 22179 1
22174 22180 1
22175 22177 1
22175 22178 1
22176 22181 1
22177 22179 1
22177 22180 1
22179 22181 1
22182 22185 1
22182 22186 1
22182 22190 1
22182 22193 1
22183 22187 1
22183 22188 1
22183 22191 1
22184 22189 1
22184 22190 1
22184 22193 1
22185 22187 1
22185 22188 1
22185 22192 1
22186 22191 1
22186 22192 1
22187 22189 1
22187 22190 1
22188 22193 1
22189 22191 1
22189 22192 1
22191 22193 1
22194 22197 1
22194 22198 1
22194 22202 1
22194 22205 1
22195 22199 1
22195 22200 1
22195 22203 1
22196 22201 1
22196 22202 1
22196 22205 1
22197 22199 1
22197 22200 1
22197 22204 1
22198 22203 1
22198 22204 1
22199 22201 1
22199 22202 1
22200 22205 1
22201 22203 1
22201 22204 1
22203 22205 1
22206 22209 1
22206 22210 1
22206 22214 1
22206 22217 1
22207 22211 1
22207 22212 1
22207 22215 1
22208 22213 1
22208 22214 1
22208 22217 1
22209 22211 1
22209 22212 1
22209 22216 1
22210 22215 1
22210 22216 1
22211 22213 1
22211 22214 1
22212 22217 1
22213 22215 1
22213 22216 1
22215 22217 1
22218 22221 1
22218 22222 1
22218 22226 1
22218 22229 1
22219 22223 1
22219 22224 1
22219 22227 1
22220 22225 1
22220 22226 1
22220 22229 1
22221 22223 1
22221 22224 1
22221 22228 1
22222 22227 1
22222 22228 1
22223 22225 1
22223 22226 1
22224 22229 1
22225 22227 1
22225 22228 1
22227 22229 1
22230 22233 1
22230 22234 1
22230 22238 1
22230 22241 1
22231 22235 1
22231 22236 1
22231 22239 1
22232 22237 1
22232 22238 1
22232 22241 1
22233 22235 1
22233 22236 1
22233 22240 1
22234 22239 1
22234 22240 1
22235 22237 1
22235 22238 1
22236 22241 1
22237 22239 1
22237 22240 1
22239 22241 1
22242 22245 1
22242 22246 1
22242 22250 1
22242 22253 1
22243 22247 1
22243 22248 1
22243 22251 1
22244 22249 1
22244 22250 1
22244 22253 1
22245 22247 1
22245 22248 1
22245 22252 1
22246 22251 1
22246 22252 1
22247 22249 1
22247 22250 1
22248 22253 1
22249 22251 1
22249 22252 1
22251 22253 1
22254 22257 1
22254 22258 1
22254 22262 1
22254 22265 1
22255 22259 1
22255 22260 1
22255 22263 1
22256 22261 1
22256 22262 1
22256 22265 1
22257 22259 1
22257 22260 1
22257 22264 1
22258 22263 1
22258 22264 1
22259 22261 1
22259 22262 1
22260 22265 1
22261 22263 1
22261 22264 1
22263 22265 1
22266 22269 1
22266 22270 1
22266 22274 1
22266 22277 1
22267 22271 1
22267 22272 1
22267 22275 1
22268 22273 1
22268 22274 1
22268 22277 1
22269 22271 1
22269 22272 1
22269 22276 1
22270 22275 1
22270 22276 1
22271 22273 1
22271 22274 1
22272 22277 1
22273 22275 1
22273 22276 1
22275 22277 1
22278 22281 1
22278 22282 1
22278 22286 1
22278 22289 1
22279 22283 1
22279 22284 1
22279 22287 1
22280 22285 1
22280 22286 1
22280 22289 1
22281 22283 1
22281 22284 1
22281 22288 1
22282 22287 1
22282 22288 1
22283 22285 1
22283 22286 1
22284 22289 1
22285 22287 1
22285 22288 1
22287 22289 1
22290 22293 1
22290 22294 1
22290 22298 1
22290 22301 1
22291 22295 1
22291 22296 1
22291 22299 1
22292 22297 1
22292 22298 1
22292 22301 1
22293 22295 1
22293 22296 1
22293 22300 1
22294 22299 1
22294 22300 1
22295 22297 1
22295 22298 1
22296 22301 1
22297 22299 1
22297 22300 1
22299 22301 1
22302 22305 1
22302 22306 1
22302 22310 1
22302 22313 1
22303 22307 1
22303 22308 1
22303 22311 1
22304 22309 1
22304 22310 1
22304 22313 1
22305 22307 1
22305 22308 1
22305 22312 1
22306 22311 1
22306 22312 1
22307 22309 1
22307 22310 1
22308 22313 1
22309 22311 1
22309 22312 1
22311 22313 1
22314 22317 1
22314 22318 1
22314 22322 1
22314 22325 1
22315 22319 1
22315 22320 1
22315 22323 1
22316 22321 1
22316 22322 1
22316 22325 1
22317 22319 1
22317 22320 1
22317 22324 1
22318 22323 1
22318 22324 1
22319 22321 1
22319 22322 1
22320 22325 1
22321 22323 1
22321 22324 1
22323 22325 1
22326 22329 1
22326 22330 1
22326 22334 1
22326 22337 1
22327 22331 1
22327 22332 1
22327 22335 1
22328 22333 1
22328 22334 1
22328 22337 1
22329 22331 1
22329 22332 1
22329 22336 1
22330 22335 1
22330 22336 1
22331 22333 1
22331 22334 1
22332 22337 1
22333 22335 1
22333 22336 1
22335 22337 1
22338 22341 1
22338 22342 1
22338 22346 1
22338 22349 1
22339 22343 1
22339 22344 1
22339 22347 1
22340 22345 1
22340 22346 1
22340 22349 1
22341 22343 1
22341 22344 1
22341 22348 1
22342 22347 1
22342 22348 1
22343 22345 1
22343 22346 1
22344 22349 1
22345 22347 1
22345 22348 1
22347 22349 1
22350 22353 1
22350 22354 1
22350 22358 1
22350 22361 1
22351 22355 1
22351 22356 1
22351 22359 1
22352 22357 1
22352 22358 1
22352 22361 1
22353 22355 1
22353 22356 1
22353 22360 1
22354 22359 1
22354 22360 1
22355 22357 1
22355 22358 1
22356 22361 1
22357 22359 1
22357 22360 1
22359 22361 1
22362 22365 1
22362 22366 1
22362 22370 1
22362 22373 1
22363 22367 1
22363 22368 1
22363 22371 1
22364 22369 1
22364 22370 1
22364 22373 1
22365 22367 1
22365 22368 1
22365 22372 1
22366 22371 1
22366 22372 1
22367 22369 1
22367 22370 1
22368 22373 1
22369 22371 1
22369 22372 1
22371 22373 1
22374 22377 1
22374 22378 1
22374 22382 1
22374 22385 1
22375 22379 1
22375 22380 1
22375 22383 1
22376 22381 1
22376 22382 1
22376 22385 1
22377 22379 1
22377 22380 1
22377 22384 1
22378 22383 1
22378 22384 1
22379 22381 1
22379 22382 1
22380 22385 1
22381 22383 1
22381 22384 1
22383 22385 1
22386 22389 1
22386 22390 1
22386 22394 1
22386 22397 1
22387 22391 1
22387 22392 1
22387 22395 1
22388 22393 1
22388 22394 1
22388 22397 1
22389 22391 1
22389 22392 1
22389 22396 1
22390 22395 1
22390 22396 1
22391 22393 1
22391 22394 1
22392 22397 1
22393 22395 1
22393 22396 1
22395 22397 1
22398 22401 1
22398 22402 1
22398 22406 1
22398 22409 1
22399 22403 1
22399 22404 1
22399 22407 1
22400 22405 1
22400 22406 1
22400 22409 1
22401 22403 1
22401 22404 1
22401 22408 1
22402 22407 1
22402 22408 1
22403 22405 1
22403 22406 1
22404 22409 1
22405 22407 1
22405 22408 1
22407 22409 1
22410 22413 1
22410 22414 1
22410 22418 1
22410 22421 1
22411 22415 1
22411 22416 1
22411 22419 1
22412 22417 1
22412 22418 1
22412 22421 1
22413 22415 1
22413 22416 1
22413 22420 1
22414 22419 1
22414 22420 1
22415 22417 1
22415 22418 1
22416 22421 1
22417 22419 1
22417 22420 1
22419 22421 1
22422 22425 1
22422 22426 1
22422 22430 1
22422 22433 1
22423 22427 1
22423 22428 1
22423 22431 1
22424 22429 1
22424 22430 1
22424 22433 1
22425 22427 1
22425 22428 1
22425 22432 1
22426 22431 1
22426 22432 1
22427 22429 1
22427 22430 1
22428 22433 1
22429 22431 1
22429 22432 1
22431 22433 1
22434 22437 1
22434 22438 1
22434 22442 1
22434 22445 1
22435 22439 1
22435 22440 1
22435 22443 1
22436 22441 1
22436 22442 1
22436 22445 1
22437 22439 1
22437 22440 1
22437 22444 1
22438 22443 1
22438 22444 1
22439 22441 1
22439 22442 1
22440 22445 1
22441 22443 1
22441 22444 1
22443 22445 1
22446 22449 1
22446 22450 1
22446 22454 1
22446 22457 1
22447 22451 1
22447 22452 1
22447 22455 1
22448 22453 1
22448 22454 1
22448 22457 1
22449 22451 1
22449 22452 1
22449 22456 1
22450 22455 1
22450 22456 1
22451 22453 1
22451 22454 1
22452 22457 1
22453 22455 1
22453 22456 1
22455 22457 1
22458 22461 1
22458 22462 1
22458 22466 1
22458 22469 1
22459 22463 1
22459 22464 1
22459 22467 1
22460 22465 1
22460 22466 1
22460 22469 1
22461 22463 1
22461 22464 1
22461 22468 1
22462 22467 1
22462 22468 1
22463 22465 1
22463 22466 1
22464 22469 1
22465 22467 1
22465 22468 1
22467 22469 1
22470 22473 1
22470 22474 1
22470 22478 1
22470 22481 1
22471 22475 1
22471 22476 1
22471 22479 1
22472 22477 1
22472 22478 1
22472 22481 1
22473 22475 1
22473 22476 1
22473 22480 1
22474 22479 1
22474 22480 1
22475 22477 1
22475 22478 1
22476 22481 1
22477 22479 1
22477 22480 1
22479 22481 1
22482 22485 1
22482 22486 1
22482 22490 1
22482 22493 1
22483 22487 1
22483 22488 1
22483 22491 1
22484 22489 1
22484 22490 1
22484 22493 1
22485 22487 1
22485 22488 1
22485 22492 1
22486 22491 1
22486 22492 1
22487 22489 1
22487 22490 1
22488 22493 1
22489 22491 1
22489 22492 1
22491 22493 1
22494 22497 1
22494 22498 1
22494 22502 1
22494 22505 1
22495 22499 1
22495 22500 1
22495 22503 1
22496 22501 1
22496 22502 1
22496 22505 1
22497 22499 1
22497 22500 1
22497 22504 1
22498 22503 1
22498 22504 1
22499 22501 1
22499 22502 1
22500 22505 1
22501 22503 1
22501 22504 1
22503 22505 1
22506 22509 1
22506 22510 1
22506 22514 1
22506 22517 1
22507 22511 1
22507 22512 1
22507 22515 1
22508 22513 1
22508 22514 1
22508 22517 1
22509 22511 1
22509 22512 1
22509 22516 1
22510 22515 1
22510 22516 1
22511 22513 1
22511 22514 1
22512 22517 1
22513 22515 1
22513 22516 1
22515 22517 1
22518 22521 1
22518 22522 1
22518 22526 1
22518 22529 1
22519 22523 1
22519 22524 1
22519 22527 1
22520 22525 1
22520 22526 1
22520 22529 1
22521 22523 1
22521 22524 1
22521 22528 1
22522 22527 1
22522 22528 1
22523 22525 1
22523 22526 1
22524 22529 1
22525 22527 1
22525 22528 1
22527 22529 1
22530 22533 1
22530 22534 1
22530 22538 1
22530 22541 1
22531 22535 1
22531 22536 1
22531 22539 1
22532 22537 1
22532 22538 1
22532 22541 1
22533 22535 1
22533 22536 1
22533 22540 1
22534 22539 1
22534 22540 1
22535 22537 1
22535 22538 1
22536 22541 1
22537 22539 1
22537 22540 1
22539 22541 1
22542 22545 1
22542 22546 1
22542 22550 1
22542 22553 1
22543 22547 1
22543 22548 1
22543 22551 1
22544 22549 1
22544 22550 1
22544 22553 1
22545 22547 1
22545 22548 1
22545 22552 1
22546 22551 1
22546 22552 1
22547 22549 1
22547 22550 1
22548 22553 1
22549 22551 1
22549 22552 1
22551 22553 1
22554 22557 1
22554 22558 1
22554 22562 1
22554 22565 1
22555 22559 1
22555 22560 1
22555 22563 1
22556 22561 1
22556 22562 1
22556 22565 1
22557 22559 1
22557 22560 1
22557 22564 1
22558 22563 1
22558 22564 1
22559 22561 1
22559 22562 1
22560 22565 1
22561 22563 1
22561 22564 1
22563 22565 1
22566 22569 1
22566 22570 1
22566 22574 1
22566 22577 1
22567 22571 1
22567 22572 1
22567 22575 1
22568 22573 1
22568 22574 1
22568 22577 1
22569 22571 1
22569 22572 1
22569 22576 1
22570 22575 1
22570 22576 1
22571 22573 1
22571 22574 1
22572 22577 1
22573 22575 1
22573 22576 1
22575 22577 1
22578 22581 1
22578 22582 1
22578 22586 1
22578 22589 1
22579 22583 1
22579 22584 1
22579 22587 1
22580 22585 1
22580 22586 1
22580 22589 1
22581 22583 1
22581 22584 1
22581 22588 1
22582 22587 1
22582 22588 1
22583 22585 1
22583 22586 1
22584 22589 1
22585 22587 1
22585 22588 1
22587 22589 1
22590 22593 1
22590 22594 1
22590 22598 1
22590 22601 1
22591 22595 1
22591 22596 1
22591 22599 1
22592 22597 1
22592 22598 1
22592 22601 1
22593 22595 1
22593 22596 1
22593 22600 1
22594 22599 1
22594 22600 1
22595 22597 1
22595 22598 1
22596 22601 1
22597 22599 1
22597 22600 1
22599 22601 1
22602 22605 1
22602 22606 1
22602 22610 1
22602 22613 1
22603 22607 1
22603 22608 1
22603 22611 1
22604 22609 1
22604 22610 1
22604 22613 1
22605 22607 1
22605 22608 1
22605 22612 1
22606 22611 1
22606 22612 1
22607 22609 1
22607 22610 1
22608 22613 1
22609 22611 1
22609 22612 1
22611 22613 1
22614 22617 1
22614 22618 1
22614 22622 1
22614 22625 1
22615 22619 1
22615 22620 1
22615 22623 1
22616 22621 1
22616 22622 1
22616 22625 1
22617 22619 1
22617 22620 1
22617 22624 1
22618 22623 1
22618 22624 1
22619 22621 1
22619 22622 1
22620 22625 1
22621 22623 1
22621 22624 1
22623 22625 1
22626 22629 1
22626 22630 1
22626 22634 1
22626 22637 1
22627 22631 1
22627 22632 1
22627 22635 1
22628 22633 1
22628 22634 1
22628 22637 1
22629 22631 1
22629 22632 1
22629 22636 1
22630 22635 1
22630 22636 1
22631 22633 1
22631 22634 1
22632 22637 1
22633 22635 1
22633 22636 1
22635 22637 1
22638 22641 1
22638 22642 1
22638 22646 1
22638 22649 1
22639 22643 1
22639 22644 1
22639 22647 1
22640 22645 1
22640 22646 1
22640 22649 1
22641 22643 1
22641 22644 1
22641 22648 1
22642 22647 1
22642 22648 1
22643 22645 1
22643 22646 1
22644 22649 1
22645 22647 1
22645 22648 1
22647 22649 1
22650 22653 1
22650 22654 1
22650 22658 1
22650 22661 1
22651 22655 1
22651 22656 1
22651 22659 1
22652 22657 1
22652 22658 1
22652 22661 1
22653 22655 1
22653 22656 1
22653 22660 1
22654 22659 1
22654 22660 1
22655 22657 1
22655 22658 1
22656 22661 1
22657 22659 1
22657 22660 1
22659 22661 1
22662 22665 1
22662 22666 1
22662 22670 1
22662 22673 1
22663 22667 1
22663 22668 1
22663 22671 1
22664 22669 1
22664 22670 1
22664 22673 1
22665 22667 1
22665 22668 1
22665 22672 1
22666 22671 1
22666 22672 1
22667 22669 1
22667 22670 1
22668 22673 1
22669 22671 1
22669 22672 1
22671 22673 1
22674 22677 1
22674 22678 1
22674 22682 1
22674 22685 1
22675 22679 1
22675 22680 1
22675 22683 1
22676 22681 1
22676 22682 1
22676 22685 1
22677 22679 1
22677 22680 1
22677 22684 1
22678 22683 1
22678 22684 1
22679 22681 1
22679 22682 1
22680 22685 1
22681 22683 1
22681 22684 1
22683 22685 1
22686 22689 1
22686 22690 1
22686 22694 1
22686 22697 1
22687 22691 1
22687 22692 1
22687 22695 1
22688 22693 1
22688 22694 1
22688 22697 1
22689 22691 1
22689 22692 1
22689 22696 1
22690 22695 1
22690 22696 1
22691 22693 1
22691 22694 1
22692 22697 1
22693 22695 1
22693 22696 1
22695 22697 1
22698 22701 1
22698 22702 1
22698 22706 1
22698 22709 1
22699 22703 1
22699 22704 1
22699 22707 1
22700 22705 1
22700 22706 1
22700 22709 1
22701 22703 1
22701 22704 1
22701 22708 1
22702 22707 1
22702 22708 1
22703 22705 1
22703 22706 1
22704 22709 1
22705 22707 1
22705 22708 1
22707 22709 1
22710 22713 1
22710 22714 1
22710 22718 1
22710 22721 1
22711 22715 1
22711 22716 1
22711 22719 1
22712 22717 1
22712 22718 1
22712 22721 1
22713 22715 1
22713 22716 1
22713 22720 1
22714 22719 1
22714 22720 1
22715 22717 1
22715 22718 1
22716 22721 1
22717 22719 1
22717 22720 1
22719 22721 1
22722 22725 1
22722 22726 1
22722 22730 1
22722 22733 1
22723 22727 1
22723 22728 1
22723 22731 1
22724 22729 1
22724 22730 1
22724 22733 1
22725 22727 1
22725 22728 1
22725 22732 1
22726 22731 1
22726 22732 1
22727 22729 1
22727 22730 1
22728 22733 1
22729 22731 1
22729 22732 1
22731 22733 1
22734 22737 1
22734 22738 1
22734 22742 1
22734 22745 1
22735 22739 1
22735 22740 1
22735 22743 1
22736 22741 1
22736 22742 1
22736 22745 1
22737 22739 1
22737 22740 1
22737 22744 1
22738 22743 1
22738 22744 1
22739 22741 1
22739 22742 1
22740 22745 1
22741 22743 1
22741 22744 1
22743 22745 1
22746 22749 1
22746 22750 1
22746 22754 1
22746 22757 1
22747 22751 1
22747 22752 1
22747 22755 1
22748 22753 1
22748 22754 1
22748 22757 1
22749 22751 1
22749 22752 1
22749 22756 1
22750 22755 1
22750 22756 1
22751 22753 1
22751 22754 1
22752 22757 1
22753 22755 1
22753 22756 1
22755 22757 1
22758 22761 1
22758 22762 1
22758 22766 1
22758 22769 1
22759 22763 1
22759 22764 1
22759 22767 1
22760 22765 1
22760 22766 1
22760 22769 1
22761 22763 1
22761 22764 1
22761 22768 1
22762 22767 1
22762 22768 1
22763 22765 1
22763 22766 1
22764 22769 1
22765 22767 1
22765 22768 1
22767 22769 1
22770 22773 1
22770 22774 1
22770 22778 1
22770 22781 1
22771 22775 1
22771 22776 1
22771 22779 1
22772 22777 1
22772 22778 1
22772 22781 1
22773 22775 1
22773 22776 1
22773 22780 1
22774 22779 1
22774 22780 1
22775 22777 1
22775 22778 1
22776 22781 1
22777 22779 1
22777 22780 1
22779 22781 1
22782 22785 1
22782 22786 1
22782 22790 1
22782 22793 1
22783 22787 1
22783 22788 1
22783 22791 1
22784 22789 1
22784 22790 1
22784 22793 1
22785 22787 1
22785 22788 1
22785 22792 1
22786 22791 1
22786 22792 1
22787 22789 1
22787 22790 1
22788 22793 1
22789 22791 1
22789 22792 1
22791 22793 1
22794 22797 1
22794 22798 1
22794 22802 1
22794 22805 1
22795 22799 1
22795 22800 1
22795 22803 1
22796 22801 1
22796 22802 1
22796 22805 1
22797 22799 1
22797 22800 1
22797 22804 1
22798 22803 1
22798 22804 1
22799 22801 1
22799 22802 1
22800 22805 1
22801 22803 1
22801 22804 1
22803 22805 1
22806 22809 1
22806 22810 1
22806 22814 1
22806 22817 1
22807 22811 1
22807 22812 1
22807 22815 1
22808 22813 1
22808 22814 1
22808 22817 1
22809 22811 1
22809 22812 1
22809 22816 1
22810 22815 1
22810 22816 1
22811 22813 1
22811 22814 1
22812 22817 1
22813 22815 1
22813 22816 1
22815 22817 1
22818 22821 1
22818 22822 1
22818 22826 1
22818 22829 1
22819 22823 1
22819 22824 1
22819 22827 1
22820 22825 1
22820 22826 1
22820 22829 1
22821 22823 1
22821 22824 1
22821 22828 1
22822 22827 1
22822 22828 1
22823 22825 1
22823 22826 1
22824 22829 1
22825 22827 1
22825 22828 1
22827 22829 1
22830 22833 1
22830 22834 1
22830 22838 1
22830 22841 1
22831 22835 1
22831 22836 1
22831 22839 1
22832 22837 1
22832 22838 1
22832 22841 1
22833 22835 1
22833 22836 1
22833 22840 1
22834 22839 1
22834 22840 1
22835 22837 1
22835 22838 1
22836 22841 1
22837 22839 1
22837 22840 1
22839 22841 1
22842 22845 1
22842 22846 1
22842 22850 1
22842 22853 1
22843 22847 1
22843 22848 1
22843 22851 1
22844 22849 1
22844 22850 1
22844 22853 1
22845 22847 1
22845 22848 1
22845 22852 1
22846 22851 1
22846 22852 1
22847 22849 1
22847 22850 1
22848 22853 1
22849 22851 1
22849 22852 1
22851 22853 1
22854 22857 1
22854 22858 1
22854 22862 1
22854 22865 1
22855 22859 1
22855 22860 1
22855 22863 1
22856 22861 1
22856 22862 1
22856 22865 1
22857 22859 1
22857 22860 1
22857 22864 1
22858 22863 1
22858 22864 1
22859 22861 1
22859 22862 1
22860 22865 1
22861 22863 1
22861 22864 1
22863 22865 1
22866 22869 1
22866 22870 1
22866 22874 1
22866 22877 1
22867 22871 1
22867 22872 1
22867 22875 1
22868 22873 1
22868 22874 1
22868 22877 1
22869 22871 1
22869 22872 1
22869 22876 1
22870 22875 1
22870 22876 1
22871 22873 1
22871 22874 1
22872 22877 1
22873 22875 1
22873 22876 1
22875 22877 1
22878 22881 1
22878 22882 1
22878 22886 1
22878 22889 1
22879 22883 1
22879 22884 1
22879 22887 1
22880 22885 1
22880 22886 1
22880 22889 1
22881 22883 1
22881 22884 1
22881 22888 1
22882 22887 1
22882 22888 1
22883 22885 1
22883 22886 1
22884 22889 1
22885 22887 1
22885 22888 1
22887 22889 1
22890 22893 1
22890 22894 1
22890 22898 1
22890 22901 1
22891 22895 1
22891 22896 1
22891 22899 1
22892 22897 1
22892 22898 1
22892 22901 1
22893 22895 1
22893 22896 1
22893 22900 1
22894 22899 1
22894 22900 1
22895 22897 1
22895 22898 1
22896 22901 1
22897 22899 1
22897 22900 1
22899 22901 1
22902 22905 1
22902 22906 1
22902 22910 1
22902 22913 1
22903 22907 1
22903 22908 1
22903 22911 1
22904 22909 1
22904 22910 1
22904 22913 1
22905 22907 1
22905 22908 1
22905 22912 1
22906 22911 1
22906 22912 1
22907 22909 1
22907 22910 1
22908 22913 1
22909 22911 1
22909 22912 1
22911 22913 1
22914 22917 1
22914 22918 1
22914 22922 1
22914 22925 1
22915 22919 1
22915 22920 1
22915 22923 1
22916 22921 1
22916 22922 1
22916 22925 1
22917 22919 1
22917 22920 1
22917 22924 1
22918 22923 1
22918 22924 1
22919 22921 1
22919 22922 1
22920 22925 1
22921 22923 1
22921 22924 1
22923 22925 1
22926 22929 1
22926 22930 1
22926 22934 1
22926 22937 1
22927 22931 1
22927 22932 1
22927 22935 1
22928 22933 1
22928 22934 1
22928 22937 1
22929 22931 1
22929 22932 1
22929 22936 1
22930 22935 1
22930 22936 1
22931 22933 1
22931 22934 1
22932 22937 1
22933 22935 1
22933 22936 1
22935 22937 1
22938 22941 1
22938 22942 1
22938 22946 1
22938 22949 1
22939 22943 1
22939 22944 1
22939 22947 1
22940 22945 1
22940 22946 1
22940 22949 1
22941 22943 1
22941 22944 1
22941 22948 1
22942 22947 1
22942 22948 1
22943 22945 1
22943 22946 1
22944 22949 1
22945 22947 1
22945 22948 1
22947 22949 1
22950 22953 1
22950 22954 1
22950 22958 1
22950 22961 1
22951 22955 1
22951 22956 1
22951 22959 1
22952 22957 1
22952 22958 1
22952 22961 1
22953 22955 1
22953 22956 1
22953 22960 1
22954 22959 1
22954 22960 1
22955 22957 1
22955 22958 1
22956 22961 1
22957 22959 1
22957 22960 1
22959 22961 1
22962 22965 1
22962 22966 1
22962 22970 1
22962 22973 1
22963 22967 1
22963 22968 1
22963 22971 1
22964 22969 1
22964 22970 1
22964 22973 1
22965 22967 1
22965 22968 1
22965 22972 1
22966 22971 1
22966 22972 1
22967 22969 1
22967 22970 1
22968 22973 1
22969 22971 1
22969 22972 1
22971 22973 1
22974 22977 1
22974 22978 1
22974 22982 1
22974 22985 1
22975 22979 1
22975 22980 1
22975 22983 1
22976 22981 1
22976 22982 1
22976 22985 1
22977 22979 1
22977 22980 1
22977 22984 1
22978 22983 1
22978 22984 1
22979 22981 1
22979 22982 1
22980 22985 1
22981 22983 1
22981 22984 1
22983 22985 1
22986 22989 1
22986 22990 1
22986 22994 1
22986 22997 1
22987 22991 1
22987 22992 1
22987 22995 1
22988 22993 1
22988 22994 1
22988 22997 1
22989 22991 1
22989 22992 1
22989 22996 1
22990 22995 1
22990 22996 1
22991 22993 1
22991 22994 1
22992 22997 1
22993 22995 1
22993 22996 1
22995 22997 1
22998 23001 1
22998 23002 1
22998 23006 1
22998 23009 1
22999 23003 1
22999 23004 1
22999 23007 1
23000 23005 1
23000 23006 1
23000 23009 1
23001 23003 1
23001 23004 1
23001 23008 1
23002 23007 1
23002 23008 1
23003 23005 1
23003 23006 1
23004 23009 1
23005 23007 1
23005 23008 1
23007 23009 1
23010 23013 1
23010 23014 1
23010 23018 1
23010 23021 1
23011 23015 1
23011 23016 1
23011 23019 1
23012 23017 1
23012 23018 1
23012 23021 1
23013 23015 1
23013 23016 1
23013 23020 1
23014 23019 1
23014 23020 1
23015 23017 1
23015 23018 1
23016 23021 1
23017 23019 1
23017 23020 1
23019 23021 1
23022 23025 1
23022 23026 1
23022 23030 1
23022 23033 1
23023 23027 1
23023 23028 1
23023 23031 1
23024 23029 1
23024 23030 1
23024 23033 1
23025 23027 1
23025 23028 1
23025 23032 1
23026 23031 1
23026 23032 1
23027 23029 1
23027 23030 1
23028 23033 1
23029 23031 1
23029 23032 1
23031 23033 1
23034 23037 1
23034 23038 1
23034 23042 1
23034 23045 1
23035 23039 1
23035 23040 1
23035 23043 1
23036 23041 1
23036 23042 1
23036 23045 1
23037 23039 1
23037 23040 1
23037 23044 1
23038 23043 1
23038 23044 1
23039 23041 1
23039 23042 1
23040 23045 1
23041 23043 1
23041 23044 1
23043 23045 1
23046 23049 1
23046 23050 1
23046 23054 1
23046 23057 1
23047 23051 1
23047 23052 1
23047 23055 1
23048 23053 1
23048 23054 1
23048 23057 1
23049 23051 1
23049 23052 1
23049 23056 1
23050 23055 1
23050 23056 1
23051 23053 1
23051 23054 1
23052 23057 1
23053 23055 1
23053 23056 1
23055 23057 1
23058 23061 1
23058 23062 1
23058 23066 1
23058 23069 1
23059 23063 1
23059 23064 1
23059 23067 1
23060 23065 1
23060 23066 1
23060 23069 1
23061 23063 1
23061 23064 1
23061 23068 1
23062 23067 1
23062 23068 1
23063 23065 1
23063 23066 1
23064 23069 1
23065 23067 1
23065 23068 1
23067 23069 1
23070 23073 1
23070 23074 1
23070 23078 1
23070 23081 1
23071 23075 1
23071 23076 1
23071 23079 1
23072 23077 1
23072 23078 1
23072 23081 1
23073 23075 1
23073 23076 1
23073 23080 1
23074 23079 1
23074 23080 1
23075 23077 1
23075 23078 1
23076 23081 1
23077 23079 1
23077 23080 1
23079 23081 1
23082 23085 1
23082 23086 1
23082 23090 1
23082 23093 1
23083 23087 1
23083 23088 1
23083 23091 1
23084 23089 1
23084 23090 1
23084 23093 1
23085 23087 1
23085 23088 1
23085 23092 1
23086 23091 1
23086 23092 1
23087 23089 1
23087 23090 1
23088 23093 1
23089 23091 1
23089 23092 1
23091 23093 1
23094 23097 1
23094 23098 1
23094 23102 1
23094 23105 1
23095 23099 1
23095 23100 1
23095 23103 1
23096 23101 1
23096 23102 1
23096 23105 1
23097 23099 1
23097 23100 1
23097 23104 1
23098 23103 1
23098 23104 1
23099 23101 1
23099 23102 1
23100 23105 1
23101 23103 1
23101 23104 1
23103 23105 1
23106 23109 1
23106 23110 1
23106 23114 1
23106 23117 1
23107 23111 1
23107 23112 1
23107 23115 1
23108 23113 1
23108 23114 1
23108 23117 1
23109 23111 1
23109 23112 1
23109 23116 1
23110 23115 1
23110 23116 1
23111 23113 1
23111 23114 1
23112 23117 1
23113 23115 1
23113 23116 1
23115 23117 1
23118 23121 1
23118 23122 1
23118 23126 1
23118 23129 1
23119 23123 1
23119 23124 1
23119 23127 1
23120 23125 1
23120 23126 1
23120 23129 1
23121 23123 1
23121 23124 1
23121 23128 1
23122 23127 1
23122 23128 1
23123 23125 1
23123 23126 1
23124 23129 1
23125 23127 1
23125 23128 1
23127 23129 1
23130 23133 1
23130 23134 1
23130 23138 1
23130 23141 1
23131 23135 1
23131 23136 1
23131 23139 1
23132 23137 1
23132 23138 1
23132 23141 1
23133 23135 1
23133 23136 1
23133 23140 1
23134 23139 1
23134 23140 1
23135 23137 1
23135 23138 1
23136 23141 1
23137 23139 1
23137 23140 1
23139 23141 1
23142 23145 1
23142 23146 1
23142 23150 1
23142 23153 1
23143 23147 1
23143 23148 1
23143 23151 1
23144 23149 1
23144 23150 1
23144 23153 1
23145 23147 1
23145 23148 1
23145 23152 1
23146 23151 1
23146 23152 1
23147 23149 1
23147 23150 1
23148 23153 1
23149 23151 1
23149 23152 1
23151 23153 1
23154 23157 1
23154 23158 1
23154 23162 1
23154 23165 1
23155 23159 1
23155 23160 1
23155 23163 1
23156 23161 1
23156 23162 1
23156 23165 1
23157 23159 1
23157 23160 1
23157 23164 1
23158 23163 1
23158 23164 1
23159 23161 1
23159 23162 1
23160 23165 1
23161 23163 1
23161 23164 1
23163 23165 1
23166 23169 1
23166 23170 1
23166 23174 1
23166 23177 1
23167 23171 1
23167 23172 1
23167 23175 1
23168 23173 1
23168 23174 1
23168 23177 1
23169 23171 1
23169 23172 1
23169 23176 1
23170 23175 1
23170 23176 1
23171 23173 1
23171 23174 1
23172 23177 1
23173 23175 1
23173 23176 1
23175 23177 1
23178 23181 1
23178 23182 1
23178 23186 1
23178 23189 1
23179 23183 1
23179 23184 1
23179 23187 1
23180 23185 1
23180 23186 1
23180 23189 1
23181 23183 1
23181 23184 1
23181 23188 1
23182 23187 1
23182 23188 1
23183 23185 1
23183 23186 1
23184 23189 1
23185 23187 1
23185 23188 1
23187 23189 1
23190 23193 1
23190 23194 1
23190 23198 1
23190 23201 1
23191 23195 1
23191 23196 1
23191 23199 1
23192 23197 1
23192 23198 1
23192 23201 1
23193 23195 1
23193 23196 1
23193 23200 1
23194 23199 1
23194 23200 1
23195 23197 1
23195 23198 1
23196 23201 1
23197 23199 1
23197 23200 1
23199 23201 1
23202 23205 1
23202 23206 1
23202 23210 1
23202 23213 1
23203 23207 1
23203 23208 1
23203 23211 1
23204 23209 1
23204 23210 1
23204 23213 1
23205 23207 1
23205 23208 1
23205 23212 1
23206 23211 1
23206 23212 1
23207 23209 1
23207 23210 1
23208 23213 1
23209 23211 1
23209 23212 1
23211 23213 1
23214 23217 1
23214 23218 1
23214 23222 1
23214 23225 1
23215 23219 1
23215 23220 1
23215 23223 1
23216 23221 1
23216 23222 1
23216 23225 1
23217 23219 1
23217 23220 1
23217 23224 1
23218 23223 1
23218 23224 1
23219 23221 1
23219 23222 1
23220 23225 1
23221 23223 1
23221 23224 1
23223 23225 1
23226 23229 1
23226 23230 1
23226 23234 1
23226 23237 1
23227 23231 1
23227 23232 1
23227 23235 1
23228 23233 1
23228 23234 1
23228 23237 1
23229 23231 1
23229 23232 1
23229 23236 1
23230 23235 1
23230 23236 1
23231 23233 1
23231 23234 1
23232 23237 1
23233 23235 1
23233 23236 1
23235 23237 1
23238 23241 1
23238 23242 1
23238 23246 1
23238 23249 1
23239 23243 1
23239 23244 1
23239 23247 1
23240 23245 1
23240 23246 1
23240 23249 1
23241 23243 1
23241 23244 1
23241 23248 1
23242 23247 1
23242 23248 1
23243 23245 1
23243 23246 1
23244 23249 1
23245 23247 1
23245 23248 1
23247 23249 1
23250 23253 1
23250 23254 1
23250 23258 1
23250 23261 1
23251 23255 1
23251 23256 1
23251 23259 1
23252 23257 1
23252 23258 1
23252 23261 1
23253 23255 1
23253 23256 1
23253 23260 1
23254 23259 1
23254 23260 1
23255 23257 1
23255 23258 1
23256 23261 1
23257 23259 1
23257 23260 1
23259 23261 1
23262 23265 1
23262 23266 1
23262 23270 1
23262 23273 1
23263 23267 1
23263 23268 1
23263 23271 1
23264 23269 1
23264 23270 1
23264 23273 1
23265 23267 1
23265 23268 1
23265 23272 1
23266 23271 1
23266 23272 1
23267 23269 1
23267 23270 1
23268 23273 1
23269 23271 1
23269 23272 1
23271 23273 1
23274 23277 1
23274 23278 1
23274 23282 1
23274 23285 1
23275 23279 1
23275 23280 1
23275 23283 1
23276 23281 1
23276 23282 1
23276 23285 1
23277 23279 1
23277 23280 1
23277 23284 1
23278 23283 1
23278 23284 1
23279 23281 1
23279 23282 1
23280 23285 1
23281 23283 1
23281 23284 1
23283 23285 1
23286 23289 1
23286 23290 1
23286 23294 1
23286 23297 1
23287 23291 1
23287 23292 1
23287 23295 1
23288 23293 1
23288 23294 1
23288 23297 1
23289 23291 1
23289 23292 1
23289 23296 1
23290 23295 1
23290 23296 1
23291 23293 1
23291 23294 1
23292 23297 1
23293 23295 1
23293 23296 1
23295 23297 1
23298 23301 1
23298 23302 1
23298 23306 1
23298 23309 1
23299 23303 1
23299 23304 1
23299 23307 1
23300 23305 1
23300 23306 1
23300 23309 1
23301 23303 1
23301 23304 1
23301 23308 1
23302 23307 1
23302 23308 1
23303 23305 1
23303 23306 1
23304 23309 1
23305 23307 1
23305 23308 1
23307 23309 1
23310 23313 1
23310 23314 1
23310 23318 1
23310 23321 1
23311 23315 1
23311 23316 1
23311 23319 1
23312 23317 1
23312 23318 1
23312 23321 1
23313 23315 1
23313 23316 1
23313 23320 1
23314 23319 1
23314 23320 1
23315 23317 1
23315 23318 1
23316 23321 1
23317 23319 1
23317 23320 1
23319 23321 1
23322 23325 1
23322 23326 1
23322 23330 1
23322 23333 1
23323 23327 1
23323 23328 1
23323 23331 1
23324 23329 1
23324 23330 1
23324 23333 1
23325 23327 1
23325 23328 1
23325 23332 1
23326 23331 1
23326 23332 1
23327 23329 1
23327 23330 1
23328 23333 1
23329 23331 1
23329 23332 1
23331 23333 1
23334 23337 1
23334 23338 1
23334 23342 1
23334 23345 1
23335 23339 1
23335 23340 1
23335 23343 1
23336 23341 1
23336 23342 1
23336 23345 1
23337 23339 1
23337 23340 1
23337 23344 1
23338 23343 1
23338 23344 1
23339 23341 1
23339 23342 1
23340 23345 1
23341 23343 1
23341 23344 1
23343 23345 1
23346 23349 1
23346 23350 1
23346 23354 1
23346 23357 1
23347 23351 1
23347 23352 1
23347 23355 1
23348 23353 1
23348 23354 1
23348 23357 1
23349 23351 1
23349 23352 1
23349 23356 1
23350 23355 1
23350 23356 1
23351 23353 1
23351 23354 1
23352 23357 1
23353 23355 1
23353 23356 1
23355 23357 1
23358 23361 1
23358 23362 1
23358 23366 1
23358 23369 1
23359 23363 1
23359 23364 1
23359 23367 1
23360 23365 1
23360 23366 1
23360 23369 1
23361 23363 1
23361 23364 1
23361 23368 1
23362 23367 1
23362 23368 1
23363 23365 1
23363 23366 1
23364 23369 1
23365 23367 1
23365 23368 1
23367 23369 1
23370 23373 1
23370 23374 1
23370 23378 1
23370 23381 1
23371 23375 1
23371 23376 1
23371 23379 1
23372 23377 1
23372 23378 1
23372 23381 1
23373 23375 1
23373 23376 1
23373 23380 1
23374 23379 1
23374 23380 1
23375 23377 1
23375 23378 1
23376 23381 1
23377 23379 1
23377 23380 1
23379 23381 1
23382 23385 1
23382 23386 1
23382 23390 1
23382 23393 1
23383 23387 1
23383 23388 1
23383 23391 1
23384 23389 1
23384 23390 1
23384 23393 1
23385 23387 1
23385 23388 1
23385 23392 1
23386 23391 1
23386 23392 1
23387 23389 1
23387 23390 1
23388 23393 1
23389 23391 1
23389 23392 1
23391 23393 1
23394 23397 1
23394 23398 1
23394 23402 1
23394 23405 1
23395 23399 1
23395 23400 1
23395 23403 1
23396 23401 1
23396 23402 1
23396 23405 1
23397 23399 1
23397 23400 1
23397 23404 1
23398 23403 1
23398 23404 1
23399 23401 1
23399 23402 1
23400 23405 1
23401 23403 1
23401 23404 1
23403 23405 1
23406 23409 1
23406 23410 1
23406 23414 1
23406 23417 1
23407 23411 1
23407 23412 1
23407 23415 1
23408 23413 1
23408 23414 1
23408 23417 1
23409 23411 1
23409 23412 1
23409 23416 1
23410 23415 1
23410 23416 1
23411 23413 1
23411 23414 1
23412 23417 1
23413 23415 1
23413 23416 1
23415 23417 1
23418 23421 1
23418 23422 1
23418 23426 1
23418 23429 1
23419 23423 1
23419 23424 1
23419 23427 1
23420 23425 1
23420 23426 1
23420 23429 1
23421 23423 1
23421 23424 1
23421 23428 1
23422 23427 1
23422 23428 1
23423 23425 1
23423 23426 1
23424 23429 1
23425 23427 1
23425 23428 1
23427 23429 1
23430 23433 1
23430 23434 1
23430 23438 1
23430 23441 1
23431 23435 1
23431 23436 1
23431 23439 1
23432 23437 1
23432 23438 1
23432 23441 1
23433 23435 1
23433 23436 1
23433 23440 1
23434 23439 1
23434 23440 1
23435 23437 1
23435 23438 1
23436 23441 1
23437 23439 1
23437 23440 1
23439 23441 1
23442 23445 1
23442 23446 1
23442 23450 1
23442 23453 1
23443 23447 1
23443 23448 1
23443 23451 1
23444 23449 1
23444 23450 1
23444 23453 1
23445 23447 1
23445 23448 1
23445 23452 1
23446 23451 1
23446 23452 1
23447 23449 1
23447 23450 1
23448 23453 1
23449 23451 1
23449 23452 1
23451 23453 1
23454 23457 1
23454 23458 1
23454 23462 1
23454 23465 1
23455 23459 1
23455 23460 1
23455 23463 1
23456 23461 1
23456 23462 1
23456 23465 1
23457 23459 1
23457 23460 1
23457 23464 1
23458 23463 1
23458 23464 1
23459 23461 1
23459 23462 1
23460 23465 1
23461 23463 1
23461 23464 1
23463 23465 1
23466 23469 1
23466 23470 1
23466 23474 1
23466 23477 1
23467 23471 1
23467 23472 1
23467 23475 1
23468 23473 1
23468 23474 1
23468 23477 1
23469 23471 1
23469 23472 1
23469 23476 1
23470 23475 1
23470 23476 1
23471 23473 1
23471 23474 1
23472 23477 1
23473 23475 1
23473 23476 1
23475 23477 1
23478 23481 1
23478 23482 1
23478 23486 1
23478 23489 1
23479 23483 1
23479 23484 1
23479 23487 1
23480 23485 1
23480 23486 1
23480 23489 1
23481 23483 1
23481 23484 1
23481 23488 1
23482 23487 1
23482 23488 1
23483 23485 1
23483 23486 1
23484 23489 1
23485 23487 1
23485 23488 1
23487 23489 1
23490 23493 1
23490 23494 1
23490 23498 1
23490 23501 1
23491 23495 1
23491 23496 1
23491 23499 1
23492 23497 1
23492 23498 1
23492 23501 1
23493 23495 1
23493 23496 1
23493 23500 1
23494 23499 1
23494 23500 1
23495 23497 1
23495 23498 1
23496 23501 1
23497 23499 1
23497 23500 1
23499 23501 1
23502 23505 1
23502 23506 1
23502 23510 1
23502 23513 1
23503 23507 1
23503 23508 1
23503 23511 1
23504 23509 1
23504 23510 1
23504 23513 1
23505 23507 1
23505 23508 1
23505 23512 1
23506 23511 1
23506 23512 1
23507 23509 1
23507 23510 1
23508 23513 1
23509 23511 1
23509 23512 1
23511 23513 1
23514 23517 1
23514 23518 1
23514 23522 1
23514 23525 1
23515 23519 1
23515 23520 1
23515 23523 1
23516 23521 1
23516 23522 1
23516 23525 1
23517 23519 1
23517 23520 1
23517 23524 1
23518 23523 1
23518 23524 1
23519 23521 1
23519 23522 1
23520 23525 1
23521 23523 1
23521 23524 1
23523 23525 1
23526 23529 1
23526 23530 1
23526 23534 1
23526 23537 1
23527 23531 1
23527 23532 1
23527 23535 1
23528 23533 1
23528 23534 1
23528 23537 1
23529 23531 1
23529 23532 1
23529 23536 1
23530 23535 1
23530 23536 1
23531 23533 1
23531 23534 1
23532 23537 1
23533 23535 1
23533 23536 1
23535 23537 1
23538 23541 1
23538 23542 1
23538 23546 1
23538 23549 1
23539 23543 1
23539 23544 1
23539 23547 1
23540 23545 1
23540 23546 1
23540 23549 1
23541 23543 1
23541 23544 1
23541 23548 1
23542 23547 1
23542 23548 1
23543 23545 1
23543 23546 1
23544 23549 1
23545 23547 1
23545 23548 1
23547 23549 1
23550 23553 1
23550 23554 1
23550 23558 1
23550 23561 1
23551 23555 1
23551 23556 1
23551 23559 1
23552 23557 1
23552 23558 1
23552 23561 1
23553 23555 1
23553 23556 1
23553 23560 1
23554 23559 1
23554 23560 1
23555 23557 1
23555 23558 1
23556 23561 1
23557 23559 1
23557 23560 1
23559 23561 1
23562 23565 1
23562 23566 1
23562 23570 1
23562 23573 1
23563 23567 1
23563 23568 1
23563 23571 1
23564 23569 1
23564 23570 1
23564 23573 1
23565 23567 1
23565 23568 1
23565 23572 1
23566 23571 1
23566 23572 1
23567 23569 1
23567 23570 1
23568 23573 1
23569 23571 1
23569 23572 1
23571 23573 1
23574 23577 1
23574 23578 1
23574 23582 1
23574 23585 1
23575 23579 1
23575 23580 1
23575 23583 1
23576 23581 1
23576 23582 1
23576 23585 1
23577 23579 1
23577 23580 1
23577 23584 1
23578 23583 1
23578 23584 1
23579 23581 1
23579 23582 1
23580 23585 1
23581 23583 1
23581 23584 1
23583 23585 1
23586 23589 1
23586 23590 1
23586 23594 1
23586 23597 1
23587 23591 1
23587 23592 1
23587 23595 1
23588 23593 1
23588 23594 1
23588 23597 1
23589 23591 1
23589 23592 1
23589 23596 1
23590 23595 1
23590 23596 1
23591 23593 1
23591 23594 1
23592 23597 1
23593 23595 1
23593 23596 1
23595 23597 1
23598 23601 1
23598 23602 1
23598 23606 1
23598 23609 1
23599 23603 1
23599 23604 1
23599 23607 1
23600 23605 1
23600 23606 1
23600 23609 1
23601 23603 1
23601 23604 1
23601 23608 1
23602 23607 1
23602 23608 1
23603 23605 1
23603 23606 1
23604 23609 1
23605 23607 1
23605 23608 1
23607 23609 1
23610 23613 1
23610 23614 1
23610 23618 1
23610 23621 1
23611 23615 1
23611 23616 1
23611 23619 1
23612 23617 1
23612 23618 1
23612 23621 1
23613 23615 1
23613 23616 1
23613 23620 1
23614 23619 1
23614 23620 1
23615 23617 1
23615 23618 1
23616 23621 1
23617 23619 1
23617 23620 1
23619 23621 1
23622 23625 1
23622 23626 1
23622 23630 1
23622 23633 1
23623 23627 1
23623 23628 1
23623 23631 1
23624 23629 1
23624 23630 1
23624 23633 1
23625 23627 1
23625 23628 1
23625 23632 1
23626 23631 1
23626 23632 1
23627 23629 1
23627 23630 1
23628 23633 1
23629 23631 1
23629 23632 1
23631 23633 1
23634 23637 1
23634 23638 1
23634 23642 1
23634 23645 1
23635 23639 1
23635 23640 1
23635 23643 1
23636 23641 1
23636 23642 1
23636 23645 1
23637 23639 1
23637 23640 1
23637 23644 1
23638 23643 1
23638 23644 1
23639 23641 1
23639 23642 1
23640 23645 1
23641 23643 1
23641 23644 1
23643 23645 1
23646 23649 1
23646 23650 1
23646 23654 1
23646 23657 1
23647 23651 1
23647 23652 1
23647 23655 1
23648 23653 1
23648 23654 1
23648 23657 1
23649 23651 1
23649 23652 1
23649 23656 1
23650 23655 1
23650 23656 1
23651 23653 1
23651 23654 1
23652 23657 1
23653 23655 1
23653 23656 1
23655 23657 1
23658 23661 1
23658 23662 1
23658 23666 1
23658 23669 1
23659 23663 1
23659 23664 1
23659 23667 1
23660 23665 1
23660 23666 1
23660 23669 1
23661 23663 1
23661 23664 1
23661 23668 1
23662 23667 1
23662 23668 1
23663 23665 1
23663 23666 1
23664 23669 1
23665 23667 1
23665 23668 1
23667 23669 1
23670 23673 1
23670 23674 1
23670 23678 1
23670 23681 1
23671 23675 1
23671 23676 1
23671 23679 1
23672 23677 1
23672 23678 1
23672 23681 1
23673 23675 1
23673 23676 1
23673 23680 1
23674 23679 1
23674 23680 1
23675 23677 1
23675 23678 1
23676 23681 1
23677 23679 1
23677 23680 1
23679 23681 1
23682 23685 1
23682 23686 1
23682 23690 1
23682 23693 1
23683 23687 1
23683 23688 1
23683 23691 1
23684 23689 1
23684 23690 1
23684 23693 1
23685 23687 1
23685 23688 1
23685 23692 1
23686 23691 1
23686 23692 1
23687 23689 1
23687 23690 1
23688 23693 1
23689 23691 1
23689 23692 1
23691 23693 1
23694 23697 1
23694 23698 1
23694 23702 1
23694 23705 1
23695 23699 1
23695 23700 1
23695 23703 1
23696 23701 1
23696 23702 1
23696 23705 1
23697 23699 1
23697 23700 1
23697 23704 1
23698 23703 1
23698 23704 1
23699 23701 1
23699 23702 1
23700 23705 1
23701 23703 1
23701 23704 1
23703 23705 1
23706 23709 1
23706 23710 1
23706 23714 1
23706 23717 1
23707 23711 1
23707 23712 1
23707 23715 1
23708 23713 1
23708 23714 1
23708 23717 1
23709 23711 1
23709 23712 1
23709 23716 1
23710 23715 1
23710 23716 1
23711 23713 1
23711 23714 1
23712 23717 1
23713 23715 1
23713 23716 1
23715 23717 1
23718 23721 1
23718 23722 1
23718 23726 1
23718 23729 1
23719 23723 1
23719 23724 1
23719 23727 1
23720 23725 1
23720 23726 1
23720 23729 1
23721 23723 1
23721 23724 1
23721 23728 1
23722 23727 1
23722 23728 1
23723 23725 1
23723 23726 1
23724 23729 1
23725 23727 1
23725 23728 1
23727 23729 1
23730 23733 1
23730 23734 1
23730 23738 1
23730 23741 1
23731 23735 1
23731 23736 1
23731 23739 1
23732 23737 1
23732 23738 1
23732 23741 1
23733 23735 1
23733 23736 1
23733 23740 1
23734 23739 1
23734 23740 1
23735 23737 1
23735 23738 1
23736 23741 1
23737 23739 1
23737 23740 1
23739 23741 1
23742 23745 1
23742 23746 1
23742 23750 1
23742 23753 1
23743 23747 1
23743 23748 1
23743 23751 1
23744 23749 1
23744 23750 1
23744 23753 1
23745 23747 1
23745 23748 1
23745 23752 1
23746 23751 1
23746 23752 1
23747 23749 1
23747 23750 1
23748 23753 1
23749 23751 1
23749 23752 1
23751 23753 1
23754 23757 1
23754 23758 1
23754 23762 1
23754 23765 1
23755 23759 1
23755 23760 1
23755 23763 1
23756 23761 1
23756 23762 1
23756 23765 1
23757 23759 1
23757 23760 1
23757 23764 1
23758 23763 1
23758 23764 1
23759 23761 1
23759 23762 1
23760 23765 1
23761 23763 1
23761 23764 1
23763 23765 1
23766 23769 1
23766 23770 1
23766 23774 1
23766 23777 1
23767 23771 1
23767 23772 1
23767 23775 1
23768 23773 1
23768 23774 1
23768 23777 1
23769 23771 1
23769 23772 1
23769 23776 1
23770 23775 1
23770 23776 1
23771 23773 1
23771 23774 1
23772 23777 1
23773 23775 1
23773 23776 1
23775 23777 1
23778 23781 1
23778 23782 1
23778 23786 1
23778 23789 1
23779 23783 1
23779 23784 1
23779 23787 1
23780 23785 1
23780 23786 1
23780 23789 1
23781 23783 1
23781 23784 1
23781 23788 1
23782 23787 1
23782 23788 1
23783 23785 1
23783 23786 1
23784 23789 1
23785 23787 1
23785 23788 1
23787 23789 1
23790 23793 1
23790 23794 1
23790 23798 1
23790 23801 1
23791 23795 1
23791 23796 1
23791 23799 1
23792 23797 1
23792 23798 1
23792 23801 1
23793 23795 1
23793 23796 1
23793 23800 1
23794 23799 1
23794 23800 1
23795 23797 1
23795 23798 1
23796 23801 1
23797 23799 1
23797 23800 1
23799 23801 1
23802 23805 1
23802 23806 1
23802 23810 1
23802 23813 1
23803 23807 1
23803 23808 1
23803 23811 1
23804 23809 1
23804 23810 1
23804 23813 1
23805 23807 1
23805 23808 1
23805 23812 1
23806 23811 1
23806 23812 1
23807 23809 1
23807 23810 1
23808 23813 1
23809 23811 1
23809 23812 1
23811 23813 1
23814 23817 1
23814 23818 1
23814 23822 1
23814 23825 1
23815 23819 1
23815 23820 1
23815 23823 1
23816 23821 1
23816 23822 1
23816 23825 1
23817 23819 1
23817 23820 1
23817 23824 1
23818 23823 1
23818 23824 1
23819 23821 1
23819 23822 1
23820 23825 1
23821 23823 1
23821 23824 1
23823 23825 1
23826 23829 1
23826 23830 1
23826 23834 1
23826 23837 1
23827 23831 1
23827 23832 1
23827 23835 1
23828 23833 1
23828 23834 1
23828 23837 1
23829 23831 1
23829 23832 1
23829 23836 1
23830 23835 1
23830 23836 1
23831 23833 1
23831 23834 1
23832 23837 1
23833 23835 1
23833 23836 1
23835 23837 1
23838 23841 1
23838 23842 1
23838 23846 1
23838 23849 1
23839 23843 1
23839 23844 1
23839 23847 1
23840 23845 1
23840 23846 1
23840 23849 1
23841 23843 1
23841 23844 1
23841 23848 1
23842 23847 1
23842 23848 1
23843 23845 1
23843 23846 1
23844 23849 1
23845 23847 1
23845 23848 1
23847 23849 1
23850 23853 1
23850 23854 1
23850 23858 1
23850 23861 1
23851 23855 1
23851 23856 1
23851 23859 1
23852 23857 1
23852 23858 1
23852 23861 1
23853 23855 1
23853 23856 1
23853 23860 1
23854 23859 1
23854 23860 1
23855 23857 1
23855 23858 1
23856 23861 1
23857 23859 1
23857 23860 1
23859 23861 1
23862 23865 1
23862 23866 1
23862 23870 1
23862 23873 1
23863 23867 1
23863 23868 1
23863 23871 1
23864 23869 1
23864 23870 1
23864 23873 1
23865 23867 1
23865 23868 1
23865 23872 1
23866 23871 1
23866 23872 1
23867 23869 1
23867 23870 1
23868 23873 1
23869 23871 1
23869 23872 1
23871 23873 1
23874 23877 1
23874 23878 1
23874 23882 1
23874 23885 1
23875 23879 1
23875 23880 1
23875 23883 1
23876 23881 1
23876 23882 1
23876 23885 1
23877 23879 1
23877 23880 1
23877 23884 1
23878 23883 1
23878 23884 1
23879 23881 1
23879 23882 1
23880 23885 1
23881 23883 1
23881 23884 1
23883 23885 1

[ angles ]
; ai aj ak funct params
11227 1 14580 1 149.00000 418.400000
11227 2 15233 1 149.00000 418.400000
11227 3 15408 1 149.00000 418.400000
11227 4 11549 1 149.00000 418.400000
11345 5 18345 1 149.00000 418.400000
18345 6 23073 1 149.00000 418.400000
11228 7 15335 1 149.00000 418.400000
11228 8 16128 1 149.00000 418.400000
11228 9 11600 1 149.00000 418.400000
11228 10 12237 1 149.00000 418.400000
12062 11 18357 1 149.00000 418.400000
12377 12 18357 1 149.00000 418.400000
13328 13 18357 1 149.00000 418.400000
11229 14 11262 1 149.00000 418.400000
11229 15 13259 1 149.00000 418.400000
11229 16 13515 1 149.00000 418.400000
11229 17 12317 1 149.00000 418.400000
12148 18 24114 1 149.00000 418.400000
11230 19 24171 1 149.00000 418.400000
11230 20 13871 1 149.00000 418.400000
11230 21 17099 1 149.00000 418.400000
11231 22 14827 1 149.00000 418.400000
11231 23 15734 1 149.00000 418.400000
11231 24 16903 1 149.00000 418.400000
11231 25 12595 1 149.00000 418.400000
11232 26 12057 1 149.00000 418.400000
11232 27 13556 1 149.00000 418.400000
11232 28 14677 1 149.00000 418.400000
11232 29 16004 1 149.00000 418.400000
18369 30 22341 1 149.00000 418.400000
18051 31 18369 1 149.00000 418.400000
13581 32 18369 1 149.00000 418.400000
11233 33 13906 1 149.00000 418.400000
11233 34 15153 1 149.00000 418.400000
11233 35 12534 1 149.00000 418.400000
11233 36 14842 1 149.00000 418.400000
11234 37 13856 1 149.00000 418.400000
11234 38 13219 1 149.00000 418.400000
11234 39 12463 1 149.00000 418.400000
11234 40 13751 1 149.00000 418.400000
11235 41 14820 1 149.00000 418.400000
11235 42 14212 1 149.00000 418.400000
11235 43 15453 1 149.00000 418.400000
11235 44 15810 1 149.00000 418.400000
11236 45 14933 1 149.00000 418.400000
11236 46 17085 1 149.00000 418.400000
11236 47 13932 1 149.00000 418.400000
11236 48 15293 1 149.00000 418.400000
11237 49 14198 1 149.00000 418.400000
11237 50 14516 1 149.00000 418.400000
11237 51 13661 1 149.00000 418.400000
11237 52 11999 1 149.00000 418.400000
11238 53 13727 1 149.00000 418.400000
11238 54 12443 1 149.00000 418.400000
11238 55 15394 1 149.00000 418.400000
11238 56 12070 1 149.00000 418.400000
11239 57 13755 1 149.00000 418.400000
11239 58 13590 1 149.00000 418.400000
11239 59 11652 1 149.00000 418.400000
11239 60 14992 1 149.00000 418.400000
11240 61 17267 1 149.00000 418.400000
11240 62 12241 1 149.00000 418.400000
11240 63 11265 1 149.00000 418.400000
11240 64 11979 1 149.00000 418.400000
11241 65 11402 1 149.00000 418.400000
11241 66 24435 1 149.00000 418.400000
11241 67 15629 1 149.00000 418.400000
16157 68 18381 1 149.00000 418.400000
14615 69 18381 1 149.00000 418.400000
11242 70 14883 1 149.00000 418.400000
11242 71 13542 1 149.00000 418.400000
11242 72 15921 1 149.00000 418.400000
11242 73 15522 1 149.00000 418.400000
11243 74 23649 1 149.00000 418.400000
11243 75 23577 1 149.00000 418.400000
11243 76 15385 1 149.00000 418.400000
11243 77 16181 1 149.00000 418.400000
11244 78 12243 1 149.00000 418.400000
11244 79 11612 1 149.00000 418.400000
11244 80 14776 1 149.00000 418.400000
11244 81 14355 1 149.00000 418.400000
11245 82 13514 1 149.00000 418.400000
11245 83 16184 1 149.00000 418.400000
11245 84 14373 1 149.00000 418.400000
11245 85 16038 1 149.00000 418.400000
13277 86 13303 1 149.00000 418.400000
11246 87 12919 1 149.00000 418.400000
11246 88 13303 1 149.00000 418.400000
11246 89 15388 1 149.00000 418.400000
18393 90 24219 1 149.00000 418.400000
15488 91 18393 1 149.00000 418.400000
18393 92 24222 1 149.00000 418.400000
11247 93 13478 1 149.00000 418.400000
11247 94 13237 1 149.00000 418.400000
11247 95 15775 1 149.00000 418.400000
11247 96 12421 1 149.00000 418.400000
11248 97 15135 1 149.00000 418.400000
11248 98 12734 1 149.00000 418.400000
11248 99 13580 1 149.00000 418.400000
11248 100 15646 1 149.00000 418.400000
11249 101 11482 1 149.00000 418.400000
11249 102 13673 1 149.00000 418.400000
11249 103 12210 1 149.00000 418.400000
11249 104 15784 1 149.00000 418.400000
11250 105 11911 1 149.00000 418.400000
11250 106 16136 1 149.00000 418.400000
11250 107 15552 1 149.00000 418.400000
11250 108 15787 1 149.00000 418.400000
11251 109 14344 1 149.00000 418.400000
11251 110 15711 1 149.00000 418.400000
11251 111 13248 1 149.00000 418.400000
11251 112 15429 1 149.00000 418.400000
11252 113 11603 1 149.00000 418.400000
11252 114 12332 1 149.00000 418.400000
11252 115 15698 1 149.00000 418.400000
11252 116 11656 1 149.00000 418.400000
11253 117 14032 1 149.00000 418.400000
11253 118 11653 1 149.00000 418.400000
11253 119 14764 1 149.00000 418.400000
11253 120 12397 1 149.00000 418.400000
11254 121 16157 1 149.00000 418.400000
11254 122 24597 1 149.00000 418.400000
11340 123 18405 1 149.00000 418.400000
16070 124 18405 1 149.00000 418.400000
18405 125 20157 1 149.00000 418.400000
11255 126 11661 1 149.00000 418.400000
11255 127 11257 1 149.00000 418.400000
11255 128 11666 1 149.00000 418.400000
11255 129 11566 1 149.00000 418.400000
11256 130 12617 1 149.00000 418.400000
11256 131 13450 1 149.00000 418.400000
11256 132 13370 1 149.00000 418.400000
11256 133 15189 1 149.00000 418.400000
11257 134 12952 1 149.00000 418.400000
11257 135 13224 1 149.00000 418.400000
11257 136 14871 1 149.00000 418.400000
18417 137 18693 1 149.00000 418.400000
14859 138 18417 1 149.00000 418.400000
12018 139 18417 1 149.00000 418.400000
11258 140 12402 1 149.00000 418.400000
11258 141 13413 1 149.00000 418.400000
11258 142 19617 1 149.00000 418.400000
11258 143 11683 1 149.00000 418.400000
11259 144 14856 1 149.00000 418.400000
11259 145 20937 1 149.00000 418.400000
11259 146 12027 1 149.00000 418.400000
11259 147 12378 1 149.00000 418.400000
13559 148 14683 1 149.00000 418.400000
11260 149 14492 1 149.00000 418.400000
11260 150 14683 1 149.00000 418.400000
11260 151 11494 1 149.00000 418.400000
11261 152 14278 1 149.00000 418.400000
11261 153 11620 1 149.00000 418.400000
11261 154 14385 1 149.00000 418.400000
11261 155 11670 1 149.00000 418.400000
11262 156 11925 1 149.00000 418.400000
11262 157 13174 1 149.00000 418.400000
11262 158 13756 1 149.00000 418.400000
13290 159 13403 1 149.00000 418.400000
11263 160 11522 1 149.00000 418.400000
11263 161 12476 1 149.00000 418.400000
11263 162 14817 1 149.00000 418.400000
11264 163 12949 1 149.00000 418.400000
11264 164 13162 1 149.00000 418.400000
11264 165 15720 1 149.00000 418.400000
11264 166 14337 1 149.00000 418.400000
11265 167 13414 1 149.00000 418.400000
11265 168 20469 1 149.00000 418.400000
11265 169 13821 1 149.00000 418.400000
11266 170 15787 1 149.00000 418.400000
11266 171 11886 1 149.00000 418.400000
11266 172 13154 1 149.00000 418.400000
11266 173 15201 1 149.00000 418.400000
11267 174 22281 1 149.00000 418.400000
11267 175 14730 1 149.00000 418.400000
11267 176 11385 1 149.00000 418.400000
11267 177 16203 1 149.00000 418.400000
17953 178 18429 1 149.00000 418.400000
15749 179 18429 1 149.00000 418.400000
11268 180 12495 1 149.00000 418.400000
11268 181 22905 1 149.00000 418.400000
11268 182 15630 1 149.00000 418.400000
11268 183 15693 1 149.00000 418.400000
11269 184 14150 1 149.00000 418.400000
11269 185 13025 1 149.00000 418.400000
11269 186 12408 1 149.00000 418.400000
11269 187 13487 1 149.00000 418.400000
11270 188 15308 1 149.00000 418.400000
11270 189 13392 1 149.00000 418.400000
11270 190 15010 1 149.00000 418.400000
11270 191 11894 1 149.00000 418.400000
13800 192 18441 1 149.00000 418.400000
11271 193 12753 1 149.00000 418.400000
11271 194 14391 1 149.00000 418.400000
11271 195 14232 1 149.00000 418.400000
11271 196 12267 1 149.00000 418.400000
11272 197 15949 1 149.00000 418.400000
11272 198 13683 1 149.00000 418.400000
11272 199 13952 1 149.00000 418.400000
11272 200 12191 1 149.00000 418.400000
11273 201 14909 1 149.00000 418.400000
11273 202 14707 1 149.00000 418.400000
11273 203 13033 1 149.00000 418.400000
12281 204 14707 1 149.00000 418.400000
16945 205 23901 1 149.00000 418.400000
11274 206 15516 1 149.00000 418.400000
11274 207 23901 1 149.00000 418.400000
11274 208 11597 1 149.00000 418.400000
11275 209 12747 1 149.00000 418.400000
11275 210 16114 1 149.00000 418.400000
11275 211 15345 1 149.00000 418.400000
11275 212 15940 1 149.00000 418.400000
12835 213 16100 1 149.00000 418.400000
11276 214 12835 1 149.00000 418.400000
11276 215 13918 1 149.00000 418.400000
11276 216 12974 1 149.00000 418.400000
11277 217 13932 1 149.00000 418.400000
11277 218 15131 1 149.00000 418.400000
11277 219 12090 1 149.00000 418.400000
11277 220 15297 1 149.00000 418.400000
18453 221 21993 1 149.00000 418.400000
12818 222 18453 1 149.00000 418.400000
15953 223 18453 1 149.00000 418.400000
11278 224 16093 1 149.00000 418.400000
11278 225 13553 1 149.00000 418.400000
11278 226 11601 1 149.00000 418.400000
11278 227 15976 1 149.00000 418.400000
11279 228 13153 1 149.00000 418.400000
11279 229 13729 1 149.00000 418.400000
11279 230 11827 1 149.00000 418.400000
11279 231 15654 1 149.00000 418.400000
18465 232 23841 1 149.00000 418.400000
15739 233 18465 1 149.00000 418.400000
14828 234 18465 1 149.00000 418.400000
13783 235 15859 1 149.00000 418.400000
13783 236 14208 1 149.00000 418.400000
11280 237 13783 1 149.00000 418.400000
12997 238 13783 1 149.00000 418.400000
18477 239 24288 1 149.00000 418.400000
15436 240 18477 1 149.00000 418.400000
17883 241 18477 1 149.00000 418.400000
15602 242 18489 1 149.00000 418.400000
13186 243 18489 1 149.00000 418.400000
14534 244 18489 1 149.00000 418.400000
18501 245 24519 1 149.00000 418.400000
11281 246 12647 1 149.00000 418.400000
11281 247 16053 1 149.00000 418.400000
11281 248 12690 1 149.00000 418.400000
11281 249 11348 1 149.00000 418.400000
11627 250 13350 1 149.00000 418.400000
11282 251 14788 1 149.00000 418.400000
11282 252 13949 1 149.00000 418.400000
11282 253 13350 1 149.00000 418.400000
11716 254 18513 1 149.00000 418.400000
18513 255 19425 1 149.00000 418.400000
11283 256 13719 1 149.00000 418.400000
11283 257 13525 1 149.00000 418.400000
11283 258 14474 1 149.00000 418.400000
11283 259 13782 1 149.00000 418.400000
11284 260 19665 1 149.00000 418.400000
11284 261 11913 1 149.00000 418.400000
11284 262 24372 1 149.00000 418.400000
11284 263 18549 1 149.00000 418.400000
11285 264 15594 1 149.00000 418.400000
11285 265 14152 1 149.00000 418.400000
11285 266 16159 1 149.00000 418.400000
11285 267 12087 1 149.00000 418.400000
11286 268 12610 1 149.00000 418.400000
11286 269 12729 1 149.00000 418.400000
11286 270 15242 1 149.00000 418.400000
11286 271 11320 1 149.00000 418.400000
18525 272 24408 1 149.00000 418.400000
13815 273 18525 1 149.00000 418.400000
18525 274 20877 1 149.00000 418.400000
11287 275 14434 1 149.00000 418.400000
11287 276 15247 1 149.00000 418.400000
11287 277 11978 1 149.00000 418.400000
11287 278 14150 1 149.00000 418.400000
11288 279 13171 1 149.00000 418.400000
11288 280 11814 1 149.00000 418.400000
11288 281 14964 1 149.00000 418.400000
11288 282 13654 1 149.00000 418.400000
14532 283 18537 1 149.00000 418.400000
12838 284 18537 1 149.00000 418.400000
16637 285 18537 1 149.00000 418.400000
11289 286 12105 1 149.00000 418.400000
11289 287 12829 1 149.00000 418.400000
11289 288 14233 1 149.00000 418.400000
11289 289 11297 1 149.00000 418.400000
11290 290 11707 1 149.00000 418.400000
11290 291 12038 1 149.00000 418.400000
11290 292 11367 1 149.00000 418.400000
11707 293 12555 1 149.00000 418.400000
11291 294 14299 1 149.00000 418.400000
11291 295 15613 1 149.00000 418.400000
11291 296 13235 1 149.00000 418.400000
13235 297 13552 1 149.00000 418.400000
11292 298 15047 1 149.00000 418.400000
11292 299 15165 1 149.00000 418.400000
11292 300 11909 1 149.00000 418.400000
11292 301 11892 1 149.00000 418.400000
11293 302 14145 1 149.00000 418.400000
11293 303 11963 1 149.00000 418.400000
11293 304 13974 1 149.00000 418.400000
11293 305 15243 1 149.00000 418.400000
11294 306 17393 1 149.00000 418.400000
11294 307 12849 1 149.00000 418.400000
11294 308 14270 1 149.00000 418.400000
11294 309 15755 1 149.00000 418.400000
11295 310 12363 1 149.00000 418.400000
11295 311 11541 1 149.00000 418.400000
11295 312 14974 1 149.00000 418.400000
11295 313 16123 1 149.00000 418.400000
18549 314 23925 1 149.00000 418.400000
12631 315 18549 1 149.00000 418.400000
11296 316 11509 1 149.00000 418.400000
11296 317 12577 1 149.00000 418.400000
11296 318 13903 1 149.00000 418.400000
11296 319 15402 1 149.00000 418.400000
15531 320 19629 1 149.00000 418.400000
11297 321 14961 1 149.00000 418.400000
11297 322 11894 1 149.00000 418.400000
11297 323 15816 1 149.00000 418.400000
11298 324 14739 1 149.00000 418.400000
11298 325 13931 1 149.00000 418.400000
11298 326 15088 1 149.00000 418.400000
11298 327 13633 1 149.00000 418.400000
11299 328 11613 1 149.00000 418.400000
11299 329 14400 1 149.00000 418.400000
11299 330 16135 1 149.00000 418.400000
11299 331 11454 1 149.00000 418.400000
11300 332 15316 1 149.00000 418.400000
11300 333 12036 1 149.00000 418.400000
11300 334 11927 1 149.00000 418.400000
11300 335 13657 1 149.00000 418.400000
12596 336 15108 1 149.00000 418.400000
14752 337 15108 1 149.00000 418.400000
11301 338 16048 1 149.00000 418.400000
11562 339 15108 1 149.00000 418.400000
11302 340 12467 1 149.00000 418.400000
11302 341 13637 1 149.00000 418.400000
11302 342 12556 1 149.00000 418.400000
11302 343 14267 1 149.00000 418.400000
11303 344 14450 1 149.00000 418.400000
11303 345 11607 1 149.00000 418.400000
11303 346 14760 1 149.00000 418.400000
11303 347 11356 1 149.00000 418.400000
16231 348 24375 1 149.00000 418.400000
13841 349 24375 1 149.00000 418.400000
18561 350 24375 1 149.00000 418.400000
14090 351 18561 1 149.00000 418.400000
11304 352 15541 1 149.00000 418.400000
11304 353 13412 1 149.00000 418.400000
11304 354 14155 1 149.00000 418.400000
11304 355 15943 1 149.00000 418.400000
11305 356 21321 1 149.00000 418.400000
11305 357 24300 1 149.00000 418.400000
11305 358 14778 1 149.00000 418.400000
11305 359 13715 1 149.00000 418.400000
11306 360 12545 1 149.00000 418.400000
11306 361 15518 1 149.00000 418.400000
11306 362 11403 1 149.00000 418.400000
11306 363 12308 1 149.00000 418.400000
11307 364 16057 1 149.00000 418.400000
11307 365 15838 1 149.00000 418.400000
11307 366 12507 1 149.00000 418.400000
11307 367 14078 1 149.00000 418.400000
13582 368 15869 1 149.00000 418.400000
15869 369 18573 1 149.00000 418.400000
12199 370 15869 1 149.00000 418.400000
12897 371 23985 1 149.00000 418.400000
11308 372 12897 1 149.00000 418.400000
12897 373 15168 1 149.00000 418.400000
11308 374 19245 1 149.00000 418.400000
11366 375 11682 1 149.00000 418.400000
11682 376 12533 1 149.00000 418.400000
11309 377 19581 1 149.00000 418.400000
11309 378 11682 1 149.00000 418.400000
11310 379 12453 1 149.00000 418.400000
11310 380 13369 1 149.00000 418.400000
11310 381 13875 1 149.00000 418.400000
11310 382 16049 1 149.00000 418.400000
11311 383 22833 1 149.00000 418.400000
11311 384 15002 1 149.00000 418.400000
11311 385 15484 1 149.00000 418.400000
11311 386 14130 1 149.00000 418.400000
11312 387 15112 1 149.00000 418.400000
11312 388 11374 1 149.00000 418.400000
11312 389 12737 1 149.00000 418.400000
11312 390 11517 1 149.00000 418.400000
11313 391 13125 1 149.00000 418.400000
11313 392 12881 1 149.00000 418.400000
11313 393 11709 1 149.00000 418.400000
11313 394 12386 1 149.00000 418.400000
17715 395 18585 1 149.00000 418.400000
11674 396 18585 1 149.00000 418.400000
11314 397 13946 1 149.00000 418.400000
11467 398 14112 1 149.00000 418.400000
11314 399 12399 1 149.00000 418.400000
11314 400 14112 1 149.00000 418.400000
11315 401 11382 1 149.00000 418.400000
11315 402 13862 1 149.00000 418.400000
11315 403 16139 1 149.00000 418.400000
11315 404 11412 1 149.00000 418.400000
11316 405 15295 1 149.00000 418.400000
11316 406 12817 1 149.00000 418.400000
13338 407 14956 1 149.00000 418.400000
11316 408 14956 1 149.00000 418.400000
11317 409 12256 1 149.00000 418.400000
11317 410 12768 1 149.00000 418.400000
11317 411 13882 1 149.00000 418.400000
11317 412 15890 1 149.00000 418.400000
11318 413 12890 1 149.00000 418.400000
11318 414 16158 1 149.00000 418.400000
11318 415 12387 1 149.00000 418.400000
11318 416 18107 1 149.00000 418.400000
18597 417 24306 1 149.00000 418.400000
13004 418 18597 1 149.00000 418.400000
16017 419 18597 1 149.00000 418.400000
11319 420 12973 1 149.00000 418.400000
11319 421 13791 1 149.00000 418.400000
11319 422 13695 1 149.00000 418.400000
11319 423 12926 1 149.00000 418.400000
11320 424 13993 1 149.00000 418.400000
11320 425 12534 1 149.00000 418.400000
11320 426 11348 1 149.00000 418.400000
11321 427 15483 1 149.00000 418.400000
11321 428 16030 1 149.00000 418.400000
11321 429 13909 1 149.00000 418.400000
11321 430 11417 1 149.00000 418.400000
11322 431 12520 1 149.00000 418.400000
11322 432 12592 1 149.00000 418.400000
11322 433 13189 1 149.00000 418.400000
11322 434 15384 1 149.00000 418.400000
11899 435 14054 1 149.00000 418.400000
11323 436 11899 1 149.00000 418.400000
11323 437 12868 1 149.00000 418.400000
11323 438 13675 1 149.00000 418.400000
13214 439 18609 1 149.00000 418.400000
18609 440 20013 1 149.00000 418.400000
11324 441 18275 1 149.00000 418.400000
11324 442 17463 1 149.00000 418.400000
11324 443 14912 1 149.00000 418.400000
11324 444 15391 1 149.00000 418.400000
11325 445 11371 1 149.00000 418.400000
11325 446 12518 1 149.00000 418.400000
11325 447 13778 1 149.00000 418.400000
11325 448 14438 1 149.00000 418.400000
12883 449 18621 1 149.00000 418.400000
18621 450 19557 1 149.00000 418.400000
11326 451 13248 1 149.00000 418.400000
11326 452 15530 1 149.00000 418.400000
11326 453 14053 1 149.00000 418.400000
11326 454 12611 1 149.00000 418.400000
11327 455 14131 1 149.00000 418.400000
11327 456 11715 1 149.00000 418.400000
11327 457 12195 1 149.00000 418.400000
11327 458 20361 1 149.00000 418.400000
15962 459 18633 1 149.00000 418.400000
18633 460 20985 1 149.00000 418.400000
11328 461 15179 1 149.00000 418.400000
11328 462 13110 1 149.00000 418.400000
11328 463 14546 1 149.00000 418.400000
11328 464 15190 1 149.00000 418.400000
11329 465 16084 1 149.00000 418.400000
11329 466 15887 1 149.00000 418.400000
11329 467 13624 1 149.00000 418.400000
11329 468 12776 1 149.00000 418.400000
11330 469 24060 1 149.00000 418.400000
11330 470 11913 1 149.00000 418.400000
11330 471 15217 1 149.00000 418.400000
11330 472 14141 1 149.00000 418.400000
12880 473 18645 1 149.00000 418.400000
14639 474 18645 1 149.00000 418.400000
11331 475 13614 1 149.00000 418.400000
11331 476 14473 1 149.00000 418.400000
11331 477 14564 1 149.00000 418.400000
11331 478 13088 1 149.00000 418.400000
11332 479 15167 1 149.00000 418.400000
13720 480 20493 1 149.00000 418.400000
15941 481 23973 1 149.00000 418.400000
11332 482 23973 1 149.00000 418.400000
11333 483 12715 1 149.00000 418.400000
11333 484 12644 1 149.00000 418.400000
11333 485 14275 1 149.00000 418.400000
11333 486 13886 1 149.00000 418.400000
11334 487 11799 1 149.00000 418.400000
11334 488 11436 1 149.00000 418.400000
11334 489 15805 1 149.00000 418.400000
11334 490 12991 1 149.00000 418.400000
11335 491 16427 1 149.00000 418.400000
11335 492 13728 1 149.00000 418.400000
11335 493 16158 1 149.00000 418.400000
11335 494 15466 1 149.00000 418.400000
13419 495 15775 1 149.00000 418.400000
11336 496 15248 1 149.00000 418.400000
11336 497 13419 1 149.00000 418.400000
11336 498 15062 1 149.00000 418.400000
14542 499 16441 1 149.00000 418.400000
11337 500 14549 1 149.00000 418.400000
11337 501 11697 1 149.00000 418.400000
11337 502 14822 1 149.00000 418.400000
11337 503 11344 1 149.00000 418.400000
11338 504 14892 1 149.00000 418.400000
11338 505 12984 1 149.00000 418.400000
11338 506 14354 1 149.00000 418.400000
11338 507 12237 1 149.00000 418.400000
11339 508 13226 1 149.00000 418.400000
11339 509 13358 1 149.00000 418.400000
11339 510 13155 1 149.00000 418.400000
11339 511 15202 1 149.00000 418.400000
11340 512 16469 1 149.00000 418.400000
11340 513 12054 1 149.00000 418.400000
11340 514 18065 1 149.00000 418.400000
12933 515 18657 1 149.00000 418.400000
15612 516 18657 1 149.00000 418.400000
14514 517 18657 1 149.00000 418.400000
18669 518 24420 1 149.00000 418.400000
18669 519 20793 1 149.00000 418.400000
16035 520 18669 1 149.00000 418.400000
11341 521 21897 1 149.00000 418.400000
11341 522 15012 1 149.00000 418.400000
20973 523 21897 1 149.00000 418.400000
11341 524 12058 1 149.00000 418.400000
11342 525 15930 1 149.00000 418.400000
11342 526 16132 1 149.00000 418.400000
11342 527 15984 1 149.00000 418.400000
11342 528 11728 1 149.00000 418.400000
11343 529 12373 1 149.00000 418.400000
11343 530 15215 1 149.00000 418.400000
11343 531 11501 1 149.00000 418.400000
11343 532 15347 1 149.00000 418.400000
11344 533 11968 1 149.00000 418.400000
11344 534 15056 1 149.00000 418.400000
11344 535 12760 1 149.00000 418.400000
11345 536 15433 1 149.00000 418.400000
11345 537 12202 1 149.00000 418.400000
11345 538 15524 1 149.00000 418.400000
11346 539 13704 1 149.00000 418.400000
11346 540 15344 1 149.00000 418.400000
11346 541 13299 1 149.00000 418.400000
11346 542 12650 1 149.00000 418.400000
12117 543 12408 1 149.00000 418.400000
12408 544 15908 1 149.00000 418.400000
11347 545 12408 1 149.00000 418.400000
11348 546 12666 1 149.00000 418.400000
11348 547 12276 1 149.00000 418.400000
11349 548 15678 1 149.00000 418.400000
11349 549 14019 1 149.00000 418.400000
11349 550 15234 1 149.00000 418.400000
11349 551 15486 1 149.00000 418.400000
11350 552 12992 1 149.00000 418.400000
11350 553 11489 1 149.00000 418.400000
11350 554 15407 1 149.00000 418.400000
11489 555 12814 1 149.00000 418.400000
15838 556 18681 1 149.00000 418.400000
13199 557 18681 1 149.00000 418.400000
13660 558 18681 1 149.00000 418.400000
11351 559 12314 1 149.00000 418.400000
11351 560 11628 1 149.00000 418.400000
11351 561 12585 1 149.00000 418.400000
11352 562 16115 1 149.00000 418.400000
11352 563 12204 1 149.00000 418.400000
11352 564 14737 1 149.00000 418.400000
11352 565 13793 1 149.00000 418.400000
11353 566 11931 1 149.00000 418.400000
11353 567 13790 1 149.00000 418.400000
11353 568 24039 1 149.00000 418.400000
11353 569 12968 1 149.00000 418.400000
11354 570 11473 1 149.00000 418.400000
11354 571 12343 1 149.00000 418.400000
11354 572 15992 1 149.00000 418.400000
11354 573 13150 1 149.00000 418.400000
11355 574 14445 1 149.00000 418.400000
11355 575 15093 1 149.00000 418.400000
11355 576 13047 1 149.00000 418.400000
11355 577 12227 1 149.00000 418.400000
14296 578 18693 1 149.00000 418.400000
18693 579 19953 1 149.00000 418.400000
11356 580 11926 1 149.00000 418.400000
11356 581 11778 1 149.00000 418.400000
11356 582 13347 1 149.00000 418.400000
14357 583 18705 1 149.00000 418.400000
13078 584 18705 1 149.00000 418.400000
11357 585 15695 1 149.00000 418.400000
11357 586 15096 1 149.00000 418.400000
11357 587 16053 1 149.00000 418.400000
11357 588 12055 1 149.00000 418.400000
11358 589 14305 1 149.00000 418.400000
11358 590 15920 1 149.00000 418.400000
11358 591 12174 1 149.00000 418.400000
11358 592 12867 1 149.00000 418.400000
11359 593 12000 1 149.00000 418.400000
11359 594 14321 1 149.00000 418.400000
11359 595 15262 1 149.00000 418.400000
11359 596 14475 1 149.00000 418.400000
11360 597 14114 1 149.00000 418.400000
11360 598 17365 1 149.00000 418.400000
11360 599 11406 1 149.00000 418.400000
11360 600 12987 1 149.00000 418.400000
17043 601 18717 1 149.00000 418.400000
15110 602 18717 1 149.00000 418.400000
17673 603 18717 1 149.00000 418.400000
11361 604 14161 1 149.00000 418.400000
11361 605 14377 1 149.00000 418.400000
11361 606 11362 1 149.00000 418.400000
11361 607 15733 1 149.00000 418.400000
11362 608 12600 1 149.00000 418.400000
11362 609 11479 1 149.00000 418.400000
11362 610 12503 1 149.00000 418.400000
11363 611 13349 1 149.00000 418.400000
11363 612 12110 1 149.00000 418.400000
11363 613 15366 1 149.00000 418.400000
11363 614 16189 1 149.00000 418.400000
11364 615 14607 1 149.00000 418.400000
11364 616 14132 1 149.00000 418.400000
11364 617 14917 1 149.00000 418.400000
11364 618 13890 1 149.00000 418.400000
14578 619 18729 1 149.00000 418.400000
18729 620 24207 1 149.00000 418.400000
14271 621 18729 1 149.00000 418.400000
11365 622 15188 1 149.00000 418.400000
11365 623 12425 1 149.00000 418.400000
11365 624 13135 1 149.00000 418.400000
11365 625 13528 1 149.00000 418.400000
11366 626 14813 1 149.00000 418.400000
11366 627 15098 1 149.00000 418.400000
11366 628 11840 1 149.00000 418.400000
11367 629 11374 1 149.00000 418.400000
11367 630 13535 1 149.00000 418.400000
11367 631 15315 1 149.00000 418.400000
11368 632 15387 1 149.00000 418.400000
11368 633 13708 1 149.00000 418.400000
11368 634 12219 1 149.00000 418.400000
11368 635 11905 1 149.00000 418.400000
11369 636 15071 1 149.00000 418.400000
11369 637 11966 1 149.00000 418.400000
11369 638 13993 1 149.00000 418.400000
11369 639 14842 1 149.00000 418.400000
11370 640 11643 1 149.00000 418.400000
11370 641 12119 1 149.00000 418.400000
11370 642 13805 1 149.00000 418.400000
11370 643 14821 1 149.00000 418.400000
11371 644 12109 1 149.00000 418.400000
11371 645 16205 1 149.00000 418.400000
11371 646 11618 1 149.00000 418.400000
11372 647 12528 1 149.00000 418.400000
11372 648 14306 1 149.00000 418.400000
11372 649 13864 1 149.00000 418.400000
11372 650 15238 1 149.00000 418.400000
11373 651 13342 1 149.00000 418.400000
11373 652 24477 1 149.00000 418.400000
11373 653 13888 1 149.00000 418.400000
11373 654 21165 1 149.00000 418.400000
11374 655 11936 1 149.00000 418.400000
11374 656 11741 1 149.00000 418.400000
11375 657 13456 1 149.00000 418.400000
11375 658 12312 1 149.00000 418.400000
11375 659 13054 1 149.00000 418.400000
12312 660 16196 1 149.00000 418.400000
11376 661 15686 1 149.00000 418.400000
11376 662 16122 1 149.00000 418.400000
14222 663 16122 1 149.00000 418.400000
11376 664 12338 1 149.00000 418.400000
11377 665 15400 1 149.00000 418.400000
14200 666 15400 1 149.00000 418.400000
11377 667 12986 1 149.00000 418.400000
11377 668 11530 1 149.00000 418.400000
12118 669 18741 1 149.00000 418.400000
14669 670 18741 1 149.00000 418.400000
11378 671 13826 1 149.00000 418.400000
11378 672 14697 1 149.00000 418.400000
12144 673 13826 1 149.00000 418.400000
11378 674 12592 1 149.00000 418.400000
12334 675 18753 1 149.00000 418.400000
18753 676 24150 1 149.00000 418.400000
11688 677 18753 1 149.00000 418.400000
11379 678 11418 1 149.00000 418.400000
11379 679 13630 1 149.00000 418.400000
11379 680 15993 1 149.00000 418.400000
11418 681 15440 1 149.00000 418.400000
11380 682 12647 1 149.00000 418.400000
13785 683 15242 1 149.00000 418.400000
11380 684 13423 1 149.00000 418.400000
11380 685 13785 1 149.00000 418.400000
11381 686 12943 1 149.00000 418.400000
11381 687 11516 1 149.00000 418.400000
11381 688 15428 1 149.00000 418.400000
11381 689 14728 1 149.00000 418.400000
11382 690 11832 1 149.00000 418.400000
11635 691 12753 1 149.00000 418.400000
11382 692 11635 1 149.00000 418.400000
11383 693 13413 1 149.00000 418.400000
11383 694 13679 1 149.00000 418.400000
11383 695 11860 1 149.00000 418.400000
11383 696 19617 1 149.00000 418.400000
11384 697 13424 1 149.00000 418.400000
11384 698 13225 1 149.00000 418.400000
11384 699 11895 1 149.00000 418.400000
11384 700 12553 1 149.00000 418.400000
11385 701 12723 1 149.00000 418.400000
11385 702 14008 1 149.00000 418.400000
11385 703 14247 1 149.00000 418.400000
11386 704 12299 1 149.00000 418.400000
11386 705 13801 1 149.00000 418.400000
11386 706 13874 1 149.00000 418.400000
11386 707 13165 1 149.00000 418.400000
11387 708 24459 1 149.00000 418.400000
11387 709 12507 1 149.00000 418.400000
11387 710 14376 1 149.00000 418.400000
11387 711 13103 1 149.00000 418.400000
11388 712 16183 1 149.00000 418.400000
11388 713 14248 1 149.00000 418.400000
11388 714 14353 1 149.00000 418.400000
14353 715 14762 1 149.00000 418.400000
13091 716 15110 1 149.00000 418.400000
11389 717 15110 1 149.00000 418.400000
11389 718 20433 1 149.00000 418.400000
14793 719 18765 1 149.00000 418.400000
12092 720 18765 1 149.00000 418.400000
18765 721 24495 1 149.00000 418.400000
14037 722 18777 1 149.00000 418.400000
11423 723 13734 1 149.00000 418.400000
13734 724 14037 1 149.00000 418.400000
11390 725 13425 1 149.00000 418.400000
11390 726 13311 1 149.00000 418.400000
11390 727 12202 1 149.00000 418.400000
11390 728 12730 1 149.00000 418.400000
11391 729 12080 1 149.00000 418.400000
11391 730 15638 1 149.00000 418.400000
11391 731 15858 1 149.00000 418.400000
11391 732 12480 1 149.00000 418.400000
11392 733 15235 1 149.00000 418.400000
11392 734 11888 1 149.00000 418.400000
11392 735 15885 1 149.00000 418.400000
11392 736 14475 1 149.00000 418.400000
11393 737 15314 1 149.00000 418.400000
11393 738 12192 1 149.00000 418.400000
11393 739 12187 1 149.00000 418.400000
11393 740 12318 1 149.00000 418.400000
11394 741 19485 1 149.00000 418.400000
11394 742 21585 1 149.00000 418.400000
11394 743 14482 1 149.00000 418.400000
11394 744 22641 1 149.00000 418.400000
11395 745 12101 1 149.00000 418.400000
11395 746 13330 1 149.00000 418.400000
11395 747 13859 1 149.00000 418.400000
11395 748 14566 1 149.00000 418.400000
11396 749 15064 1 149.00000 418.400000
11396 750 14451 1 149.00000 418.400000
11396 751 14945 1 149.00000 418.400000
11396 752 13270 1 149.00000 418.400000
11397 753 12404 1 149.00000 418.400000
11397 754 12388 1 149.00000 418.400000
11397 755 12104 1 149.00000 418.400000
11397 756 11859 1 149.00000 418.400000
11398 757 12331 1 149.00000 418.400000
11398 758 11488 1 149.00000 418.400000
11398 759 12697 1 149.00000 418.400000
11380 760 11398 1 149.00000 418.400000
11399 761 12824 1 149.00000 418.400000
11399 762 12791 1 149.00000 418.400000
11399 763 14670 1 149.00000 418.400000
11399 764 15390 1 149.00000 418.400000
11400 765 13622 1 149.00000 418.400000
11400 766 14198 1 149.00000 418.400000
11400 767 13718 1 149.00000 418.400000
11400 768 14386 1 149.00000 418.400000
11401 769 11860 1 149.00000 418.400000
11301 770 11401 1 149.00000 418.400000
11401 771 13846 1 149.00000 418.400000
11401 772 14367 1 149.00000 418.400000
11402 773 13301 1 149.00000 418.400000
11402 774 14944 1 149.00000 418.400000
11402 775 16973 1 149.00000 418.400000
11403 776 15610 1 149.00000 418.400000
11403 777 13542 1 149.00000 418.400000
13542 778 14113 1 149.00000 418.400000
11404 779 24180 1 149.00000 418.400000
11404 780 13551 1 149.00000 418.400000
11404 781 12271 1 149.00000 418.400000
11404 782 16004 1 149.00000 418.400000
18789 783 23940 1 149.00000 418.400000
12079 784 18789 1 149.00000 418.400000
18789 785 24579 1 149.00000 418.400000
11405 786 14093 1 149.00000 418.400000
11405 787 12988 1 149.00000 418.400000
11405 788 13978 1 149.00000 418.400000
11405 789 15665 1 149.00000 418.400000
15947 790 18801 1 149.00000 418.400000
15771 791 18801 1 149.00000 418.400000
18801 792 24270 1 149.00000 418.400000
14166 793 24147 1 149.00000 418.400000
11406 794 15072 1 149.00000 418.400000
11406 795 15578 1 149.00000 418.400000
11406 796 20697 1 149.00000 418.400000
12452 797 18813 1 149.00000 418.400000
13812 798 18813 1 149.00000 418.400000
18813 799 23409 1 149.00000 418.400000
12804 800 18825 1 149.00000 418.400000
18825 801 20133 1 149.00000 418.400000
11407 802 15336 1 149.00000 418.400000
11407 803 14913 1 149.00000 418.400000
11407 804 12598 1 149.00000 418.400000
11407 805 13381 1 149.00000 418.400000
11408 806 11713 1 149.00000 418.400000
11408 807 15810 1 149.00000 418.400000
11408 808 12946 1 149.00000 418.400000
11713 809 13746 1 149.00000 418.400000
14483 810 15451 1 149.00000 418.400000
11626 811 15451 1 149.00000 418.400000
15451 812 15854 1 149.00000 418.400000
11409 813 15451 1 149.00000 418.400000
11410 814 24222 1 149.00000 418.400000
11410 815 22329 1 149.00000 418.400000
11410 816 13611 1 149.00000 418.400000
11410 817 15962 1 149.00000 418.400000
11411 818 12934 1 149.00000 418.400000
11411 819 15757 1 149.00000 418.400000
11411 820 14520 1 149.00000 418.400000
11411 821 14884 1 149.00000 418.400000
11412 822 12132 1 149.00000 418.400000
11412 823 13253 1 149.00000 418.400000
11412 824 16044 1 149.00000 418.400000
11413 825 16012 1 149.00000 418.400000
15573 826 16012 1 149.00000 418.400000
11413 827 15065 1 149.00000 418.400000
11413 828 11876 1 149.00000 418.400000
11414 829 14740 1 149.00000 418.400000
11414 830 13954 1 149.00000 418.400000
11414 831 14191 1 149.00000 418.400000
11414 832 13849 1 149.00000 418.400000
11415 833 15819 1 149.00000 418.400000
11415 834 15772 1 149.00000 418.400000
11415 835 15344 1 149.00000 418.400000
11415 836 15556 1 149.00000 418.400000
18837 837 20829 1 149.00000 418.400000
13068 838 18837 1 149.00000 418.400000
15402 839 18837 1 149.00000 418.400000
18849 840 20445 1 149.00000 418.400000
11416 841 12473 1 149.00000 418.400000
11416 842 15859 1 149.00000 418.400000
11409 843 11416 1 149.00000 418.400000
11416 844 14407 1 149.00000 418.400000
19605 845 23829 1 149.00000 418.400000
11417 846 14396 1 149.00000 418.400000
11417 847 11839 1 149.00000 418.400000
11417 848 12589 1 149.00000 418.400000
11418 849 14007 1 149.00000 418.400000
11379 850 12891 1 149.00000 418.400000
11418 851 15004 1 149.00000 418.400000
11419 852 15634 1 149.00000 418.400000
11419 853 24285 1 149.00000 418.400000
11419 854 11720 1 149.00000 418.400000
11419 855 12115 1 149.00000 418.400000
11420 856 11470 1 149.00000 418.400000
11420 857 14168 1 149.00000 418.400000
11420 858 12623 1 149.00000 418.400000
11420 859 15465 1 149.00000 418.400000
11421 860 14510 1 149.00000 418.400000
11421 861 12594 1 149.00000 418.400000
11421 862 15935 1 149.00000 418.400000
11421 863 15983 1 149.00000 418.400000
11422 864 21729 1 149.00000 418.400000
11422 865 11452 1 149.00000 418.400000
11452 866 14796 1 149.00000 418.400000
11422 867 24597 1 149.00000 418.400000
11423 868 22617 1 149.00000 418.400000
11423 869 11465 1 149.00000 418.400000
11423 870 12994 1 149.00000 418.400000
11424 871 12623 1 149.00000 418.400000
11424 872 13379 1 149.00000 418.400000
11424 873 14942 1 149.00000 418.400000
11424 874 15358 1 149.00000 418.400000
11425 875 11857 1 149.00000 418.400000
11425 876 11935 1 149.00000 418.400000
11425 877 15192 1 149.00000 418.400000
11425 878 12893 1 149.00000 418.400000
11426 879 15676 1 149.00000 418.400000
11426 880 14994 1 149.00000 418.400000
11426 881 14242 1 149.00000 418.400000
11426 882 12214 1 149.00000 418.400000
11427 883 13200 1 149.00000 418.400000
11427 884 15070 1 149.00000 418.400000
11427 885 14922 1 149.00000 418.400000
11427 886 14195 1 149.00000 418.400000
11428 887 13743 1 149.00000 418.400000
11428 888 14097 1 149.00000 418.400000
11428 889 20973 1 149.00000 418.400000
11429 890 14262 1 149.00000 418.400000
11429 891 13346 1 149.00000 418.400000
11429 892 15794 1 149.00000 418.400000
11429 893 12368 1 149.00000 418.400000
11430 894 11512 1 149.00000 418.400000
11842 895 12235 1 149.00000 418.400000
11512 896 24297 1 149.00000 418.400000
12235 897 14560 1 149.00000 418.400000
11431 898 13776 1 149.00000 418.400000
11431 899 13479 1 149.00000 418.400000
11431 900 11988 1 149.00000 418.400000
11431 901 15652 1 149.00000 418.400000
11950 902 12651 1 149.00000 418.400000
12088 903 12651 1 149.00000 418.400000
11432 904 12651 1 149.00000 418.400000
12651 905 14375 1 149.00000 418.400000
11926 906 14128 1 149.00000 418.400000
11433 907 15138 1 149.00000 418.400000
11433 908 14997 1 149.00000 418.400000
11433 909 14128 1 149.00000 418.400000
11434 910 15099 1 149.00000 418.400000
11434 911 11891 1 149.00000 418.400000
11434 912 15834 1 149.00000 418.400000
11434 913 15731 1 149.00000 418.400000
11435 914 15257 1 149.00000 418.400000
11435 915 13035 1 149.00000 418.400000
11435 916 15008 1 149.00000 418.400000
11435 917 14335 1 149.00000 418.400000
11436 918 11964 1 149.00000 418.400000
11436 919 15690 1 149.00000 418.400000
11436 920 16019 1 149.00000 418.400000
11437 921 14991 1 149.00000 418.400000
11437 922 13693 1 149.00000 418.400000
11437 923 12743 1 149.00000 418.400000
11437 924 11680 1 149.00000 418.400000
11438 925 11447 1 149.00000 418.400000
11438 926 13579 1 149.00000 418.400000
11438 927 11737 1 149.00000 418.400000
11438 928 15894 1 149.00000 418.400000
11439 929 15388 1 149.00000 418.400000
11439 930 14759 1 149.00000 418.400000
11439 931 13445 1 149.00000 418.400000
11439 932 15135 1 149.00000 418.400000
11440 933 13479 1 149.00000 418.400000
11440 934 15958 1 149.00000 418.400000
11440 935 13081 1 149.00000 418.400000
11440 936 14477 1 149.00000 418.400000
11441 937 24291 1 149.00000 418.400000
11441 938 15755 1 149.00000 418.400000
11441 939 12878 1 149.00000 418.400000
11441 940 21381 1 149.00000 418.400000
11442 941 11496 1 149.00000 418.400000
11442 942 15464 1 149.00000 418.400000
11442 943 17015 1 149.00000 418.400000
11442 944 14316 1 149.00000 418.400000
11443 945 15149 1 149.00000 418.400000
11443 946 11602 1 149.00000 418.400000
11443 947 16054 1 149.00000 418.400000
11443 948 16204 1 149.00000 418.400000
11528 949 14466 1 149.00000 418.400000
11444 950 12138 1 149.00000 418.400000
11444 951 14466 1 149.00000 418.400000
11444 952 13390 1 149.00000 418.400000
11445 953 11461 1 149.00000 418.400000
11445 954 13242 1 149.00000 418.400000
11445 955 12464 1 149.00000 418.400000
11445 956 15008 1 149.00000 418.400000
11446 957 11508 1 149.00000 418.400000
11446 958 12158 1 149.00000 418.400000
11508 959 13182 1 149.00000 418.400000
12158 960 12489 1 149.00000 418.400000
11447 961 15178 1 149.00000 418.400000
11447 962 14311 1 149.00000 418.400000
11447 963 14209 1 149.00000 418.400000
15756 964 18861 1 149.00000 418.400000
13010 965 18861 1 149.00000 418.400000
11448 966 12623 1 149.00000 418.400000
11448 967 13880 1 149.00000 418.400000
11448 968 14339 1 149.00000 418.400000
11448 969 15930 1 149.00000 418.400000
11449 970 15443 1 149.00000 418.400000
11449 971 11712 1 149.00000 418.400000
11449 972 12038 1 149.00000 418.400000
11449 973 11631 1 149.00000 418.400000
11450 974 14374 1 149.00000 418.400000
11450 975 13779 1 149.00000 418.400000
11450 976 15548 1 149.00000 418.400000
11450 977 14364 1 149.00000 418.400000
18873 978 24552 1 149.00000 418.400000
14947 979 18873 1 149.00000 418.400000
18873 980 21705 1 149.00000 418.400000
11451 981 14576 1 149.00000 418.400000
11877 982 14576 1 149.00000 418.400000
11451 983 12025 1 149.00000 418.400000
11451 984 11561 1 149.00000 418.400000
11732 985 24669 1 149.00000 418.400000
11422 986 20409 1 149.00000 418.400000
11452 987 12568 1 149.00000 418.400000
11452 988 15327 1 149.00000 418.400000
11453 989 16008 1 149.00000 418.400000
11453 990 16192 1 149.00000 418.400000
11453 991 14968 1 149.00000 418.400000
11453 992 11488 1 149.00000 418.400000
11454 993 13093 1 149.00000 418.400000
11454 994 16026 1 149.00000 418.400000
11454 995 11613 1 149.00000 418.400000
11455 996 16135 1 149.00000 418.400000
11455 997 15990 1 149.00000 418.400000
11455 998 15673 1 149.00000 418.400000
11455 999 12335 1 149.00000 418.400000
11456 1000 12962 1 149.00000 418.400000
11456 1001 16075 1 149.00000 418.400000
11456 1002 15767 1 149.00000 418.400000
11456 1003 15010 1 149.00000 418.400000
11457 1004 12143 1 149.00000 418.400000
11457 1005 11857 1 149.00000 418.400000
11457 1006 14561 1 149.00000 418.400000
11457 1007 13934 1 149.00000 418.400000
11458 1008 11487 1 149.00000 418.400000
11458 1009 14955 1 149.00000 418.400000
14633 1010 14965 1 149.00000 418.400000
11458 1011 14633 1 149.00000 418.400000
11459 1012 14311 1 149.00000 418.400000
11459 1013 15305 1 149.00000 418.400000
11459 1014 15894 1 149.00000 418.400000
11459 1015 12357 1 149.00000 418.400000
11460 1016 11722 1 149.00000 418.400000
11460 1017 15553 1 149.00000 418.400000
11460 1018 13739 1 149.00000 418.400000
11460 1019 12226 1 149.00000 418.400000
11461 1020 22161 1 149.00000 418.400000
11461 1021 24165 1 149.00000 418.400000
11461 1022 19653 1 149.00000 418.400000
11462 1023 15357 1 149.00000 418.400000
11462 1024 15738 1 149.00000 418.400000
11462 1025 12941 1 149.00000 418.400000
11462 1026 15890 1 149.00000 418.400000
11906 1027 18885 1 149.00000 418.400000
12002 1028 18885 1 149.00000 418.400000
15139 1029 18885 1 149.00000 418.400000
11432 1030 11463 1 149.00000 418.400000
11463 1031 15457 1 149.00000 418.400000
11463 1032 14359 1 149.00000 418.400000
11463 1033 15013 1 149.00000 418.400000
17379 1034 18897 1 149.00000 418.400000
13871 1035 18897 1 149.00000 418.400000
14919 1036 19257 1 149.00000 418.400000
14919 1037 24351 1 149.00000 418.400000
12852 1038 14919 1 149.00000 418.400000
11464 1039 14919 1 149.00000 418.400000
11465 1040 24198 1 149.00000 418.400000
11465 1041 14845 1 149.00000 418.400000
11465 1042 18909 1 149.00000 418.400000
18909 1043 23934 1 149.00000 418.400000
18909 1044 19629 1 149.00000 418.400000
11466 1045 14936 1 149.00000 418.400000
11466 1046 15440 1 149.00000 418.400000
11466 1047 11533 1 149.00000 418.400000
11466 1048 15004 1 149.00000 418.400000
11467 1049 14792 1 149.00000 418.400000
11467 1050 15316 1 149.00000 418.400000
11467 1051 14330 1 149.00000 418.400000
11468 1052 11598 1 149.00000 418.400000
11468 1053 15230 1 149.00000 418.400000
11468 1054 14949 1 149.00000 418.400000
11468 1055 12358 1 149.00000 418.400000
11469 1056 11645 1 149.00000 418.400000
11469 1057 15561 1 149.00000 418.400000
11469 1058 14091 1 149.00000 418.400000
11469 1059 14990 1 149.00000 418.400000
11470 1060 15364 1 149.00000 418.400000
11470 1061 15115 1 149.00000 418.400000
12667 1062 15364 1 149.00000 418.400000
12991 1063 13198 1 149.00000 418.400000
11471 1064 12991 1 149.00000 418.400000
12991 1065 14499 1 149.00000 418.400000
11472 1066 13461 1 149.00000 418.400000
11472 1067 14277 1 149.00000 418.400000
11472 1068 14302 1 149.00000 418.400000
11472 1069 12159 1 149.00000 418.400000
11473 1070 15533 1 149.00000 418.400000
11473 1071 16094 1 149.00000 418.400000
11473 1072 14688 1 149.00000 418.400000
11474 1073 19257 1 149.00000 418.400000
11474 1074 16200 1 149.00000 418.400000
11474 1075 24129 1 149.00000 418.400000
11474 1076 23943 1 149.00000 418.400000
11475 1077 13317 1 149.00000 418.400000
11475 1078 13595 1 149.00000 418.400000
11475 1079 16060 1 149.00000 418.400000
11475 1080 14879 1 149.00000 418.400000
11476 1081 15391 1 149.00000 418.400000
11476 1082 12428 1 149.00000 418.400000
11476 1083 16133 1 149.00000 418.400000
11476 1084 14180 1 149.00000 418.400000
11477 1085 13149 1 149.00000 418.400000
11477 1086 12263 1 149.00000 418.400000
11477 1087 13789 1 149.00000 418.400000
11477 1088 12831 1 149.00000 418.400000
11478 1089 13827 1 149.00000 418.400000
11478 1090 14431 1 149.00000 418.400000
11478 1091 12884 1 149.00000 418.400000
11478 1092 15814 1 149.00000 418.400000
11479 1093 12861 1 149.00000 418.400000
11479 1094 13938 1 149.00000 418.400000
11479 1095 15872 1 149.00000 418.400000
11480 1096 13955 1 149.00000 418.400000
11480 1097 12975 1 149.00000 418.400000
11480 1098 14009 1 149.00000 418.400000
11480 1099 12503 1 149.00000 418.400000
11481 1100 12842 1 149.00000 418.400000
11481 1101 12876 1 149.00000 418.400000
11481 1102 14791 1 149.00000 418.400000
11481 1103 16059 1 149.00000 418.400000
11482 1104 15584 1 149.00000 418.400000
11482 1105 14564 1 149.00000 418.400000
11482 1106 16167 1 149.00000 418.400000
11483 1107 11964 1 149.00000 418.400000
11964 1108 15998 1 149.00000 418.400000
11964 1109 13037 1 149.00000 418.400000
18921 1110 22629 1 149.00000 418.400000
13166 1111 18921 1 149.00000 418.400000
18921 1112 24507 1 149.00000 418.400000
11484 1113 15970 1 149.00000 418.400000
14189 1114 15970 1 149.00000 418.400000
11484 1115 14995 1 149.00000 418.400000
11484 1116 11595 1 149.00000 418.400000
11485 1117 13492 1 149.00000 418.400000
11485 1118 20313 1 149.00000 418.400000
11485 1119 15246 1 149.00000 418.400000
11485 1120 24519 1 149.00000 418.400000
11486 1121 12885 1 149.00000 418.400000
11486 1122 15337 1 149.00000 418.400000
11486 1123 20289 1 149.00000 418.400000
11486 1124 14870 1 149.00000 418.400000
11487 1125 15599 1 149.00000 418.400000
11487 1126 15152 1 149.00000 418.400000
11487 1127 15857 1 149.00000 418.400000
11488 1128 11781 1 149.00000 418.400000
11488 1129 12640 1 149.00000 418.400000
11489 1130 15143 1 149.00000 418.400000
11350 1131 14767 1 149.00000 418.400000
11489 1132 14811 1 149.00000 418.400000
11490 1133 13630 1 149.00000 418.400000
11490 1134 12156 1 149.00000 418.400000
11490 1135 13676 1 149.00000 418.400000
11490 1136 13592 1 149.00000 418.400000
15450 1137 23169 1 149.00000 418.400000
11491 1138 15016 1 149.00000 418.400000
11491 1139 12527 1 149.00000 418.400000
11491 1140 15075 1 149.00000 418.400000
11491 1141 11649 1 149.00000 418.400000
11492 1142 11916 1 149.00000 418.400000
11492 1143 11506 1 149.00000 418.400000
11492 1144 12974 1 149.00000 418.400000
11492 1145 13213 1 149.00000 418.400000
11493 1146 16011 1 149.00000 418.400000
11493 1147 12624 1 149.00000 418.400000
11493 1148 21849 1 149.00000 418.400000
11493 1149 15514 1 149.00000 418.400000
11494 1150 13291 1 149.00000 418.400000
13291 1151 13742 1 149.00000 418.400000
11494 1152 12156 1 149.00000 418.400000
11495 1153 16118 1 149.00000 418.400000
11495 1154 21789 1 149.00000 418.400000
11495 1155 14424 1 149.00000 418.400000
11495 1156 14648 1 149.00000 418.400000
11496 1157 15725 1 149.00000 418.400000
11496 1158 11769 1 149.00000 418.400000
11496 1159 14533 1 149.00000 418.400000
12820 1160 15280 1 149.00000 418.400000
11497 1161 11859 1 149.00000 418.400000
11497 1162 12820 1 149.00000 418.400000
12820 1163 13127 1 149.00000 418.400000
11498 1164 13981 1 149.00000 418.400000
11498 1165 15917 1 149.00000 418.400000
11498 1166 13319 1 149.00000 418.400000
11498 1167 13671 1 149.00000 418.400000
11499 1168 16017 1 149.00000 418.400000
11499 1169 14711 1 149.00000 418.400000
11499 1170 20457 1 149.00000 418.400000
11499 1171 22593 1 149.00000 418.400000
11500 1172 13632 1 149.00000 418.400000
11500 1173 14582 1 149.00000 418.400000
11500 1174 12597 1 149.00000 418.400000
11500 1175 13827 1 149.00000 418.400000
11501 1176 15525 1 149.00000 418.400000
11501 1177 14042 1 149.00000 418.400000
11501 1178 15540 1 149.00000 418.400000
15649 1179 18933 1 149.00000 418.400000
17981 1180 18933 1 149.00000 418.400000
11502 1181 14858 1 149.00000 418.400000
11502 1182 14043 1 149.00000 418.400000
11502 1183 15643 1 149.00000 418.400000
11502 1184 15073 1 149.00000 418.400000
11503 1185 13513 1 149.00000 418.400000
11503 1186 11904 1 149.00000 418.400000
11503 1187 11606 1 149.00000 418.400000
11503 1188 15992 1 149.00000 418.400000
11504 1189 12796 1 149.00000 418.400000
11504 1190 15909 1 149.00000 418.400000
11504 1191 14246 1 149.00000 418.400000
12796 1192 14069 1 149.00000 418.400000
11505 1193 13693 1 149.00000 418.400000
11505 1194 13531 1 149.00000 418.400000
11505 1195 11730 1 149.00000 418.400000
11505 1196 12603 1 149.00000 418.400000
11276 1197 11506 1 149.00000 418.400000
11506 1198 15711 1 149.00000 418.400000
13292 1199 14485 1 149.00000 418.400000
11507 1200 14004 1 149.00000 418.400000
11507 1201 13292 1 149.00000 418.400000
11507 1202 14513 1 149.00000 418.400000
11446 1203 12344 1 149.00000 418.400000
11508 1204 12574 1 149.00000 418.400000
11508 1205 12558 1 149.00000 418.400000
11917 1206 18945 1 149.00000 418.400000
17435 1207 18945 1 149.00000 418.400000
11509 1208 14677 1 149.00000 418.400000
11509 1209 13551 1 149.00000 418.400000
11509 1210 13243 1 149.00000 418.400000
11510 1211 13675 1 149.00000 418.400000
11290 1212 11510 1 149.00000 418.400000
11510 1213 14977 1 149.00000 418.400000
11510 1214 12264 1 149.00000 418.400000
11511 1215 15881 1 149.00000 418.400000
11511 1216 19857 1 149.00000 418.400000
11511 1217 14468 1 149.00000 418.400000
11511 1218 11557 1 149.00000 418.400000
11512 1219 14149 1 149.00000 418.400000
11430 1220 15272 1 149.00000 418.400000
11512 1221 15597 1 149.00000 418.400000
18957 1222 24327 1 149.00000 418.400000
12288 1223 18957 1 149.00000 418.400000
18957 1224 24525 1 149.00000 418.400000
11513 1225 11534 1 149.00000 418.400000
11513 1226 14811 1 149.00000 418.400000
11513 1227 15893 1 149.00000 418.400000
11513 1228 12814 1 149.00000 418.400000
11514 1229 13563 1 149.00000 418.400000
11514 1230 15863 1 149.00000 418.400000
11514 1231 24729 1 149.00000 418.400000
11514 1232 12886 1 149.00000 418.400000
11515 1233 14518 1 149.00000 418.400000
11515 1234 14963 1 149.00000 418.400000
11515 1235 12964 1 149.00000 418.400000
11515 1236 14422 1 149.00000 418.400000
18969 1237 23931 1 149.00000 418.400000
15286 1238 18969 1 149.00000 418.400000
13366 1239 18969 1 149.00000 418.400000
11516 1240 14260 1 149.00000 418.400000
11516 1241 13238 1 149.00000 418.400000
11516 1242 12586 1 149.00000 418.400000
11517 1243 14765 1 149.00000 418.400000
11517 1244 15315 1 149.00000 418.400000
11517 1245 15665 1 149.00000 418.400000
11518 1246 13617 1 149.00000 418.400000
11518 1247 11667 1 149.00000 418.400000
11518 1248 14911 1 149.00000 418.400000
11518 1249 13819 1 149.00000 418.400000
11519 1250 15265 1 149.00000 418.400000
11519 1251 12676 1 149.00000 418.400000
11519 1252 12258 1 149.00000 418.400000
11519 1253 13980 1 149.00000 418.400000
11520 1254 13939 1 149.00000 418.400000
11520 1255 13749 1 149.00000 418.400000
11520 1256 11567 1 149.00000 418.400000
11520 1257 15827 1 149.00000 418.400000
12578 1258 19317 1 149.00000 418.400000
11521 1259 18233 1 149.00000 418.400000
11521 1260 24501 1 149.00000 418.400000
11521 1261 12955 1 149.00000 418.400000
11521 1262 16095 1 149.00000 418.400000
11522 1263 16149 1 149.00000 418.400000
11522 1264 15190 1 149.00000 418.400000
11522 1265 12151 1 149.00000 418.400000
11523 1266 13361 1 149.00000 418.400000
11523 1267 15035 1 149.00000 418.400000
11523 1268 13475 1 149.00000 418.400000
11523 1269 23409 1 149.00000 418.400000
11524 1270 14230 1 149.00000 418.400000
11524 1271 16203 1 149.00000 418.400000
11524 1272 13649 1 149.00000 418.400000
11524 1273 12229 1 149.00000 418.400000
11525 1274 15935 1 149.00000 418.400000
11525 1275 12905 1 149.00000 418.400000
11525 1276 13489 1 149.00000 418.400000
11525 1277 12903 1 149.00000 418.400000
11526 1278 12258 1 149.00000 418.400000
11526 1279 11977 1 149.00000 418.400000
11526 1280 13896 1 149.00000 418.400000
11526 1281 15268 1 149.00000 418.400000
11527 1282 14495 1 149.00000 418.400000
11527 1283 14621 1 149.00000 418.400000
12060 1284 16045 1 149.00000 418.400000
11527 1285 16045 1 149.00000 418.400000
14577 1286 18981 1 149.00000 418.400000
14577 1287 16082 1 149.00000 418.400000
18981 1288 21297 1 149.00000 418.400000
11528 1289 13085 1 149.00000 418.400000
11528 1290 14525 1 149.00000 418.400000
11528 1291 22569 1 149.00000 418.400000
11529 1292 15290 1 149.00000 418.400000
11529 1293 15664 1 149.00000 418.400000
11529 1294 15520 1 149.00000 418.400000
11529 1295 16050 1 149.00000 418.400000
11530 1296 15191 1 149.00000 418.400000
11530 1297 14742 1 149.00000 418.400000
11530 1298 11846 1 149.00000 418.400000
11531 1299 11637 1 149.00000 418.400000
11531 1300 15629 1 149.00000 418.400000
11531 1301 12026 1 149.00000 418.400000
11531 1302 12486 1 149.00000 418.400000
11532 1303 14844 1 149.00000 418.400000
14004 1304 15686 1 149.00000 418.400000
11532 1305 14004 1 149.00000 418.400000
11532 1306 15586 1 149.00000 418.400000
11533 1307 14355 1 149.00000 418.400000
11533 1308 11586 1 149.00000 418.400000
11533 1309 12588 1 149.00000 418.400000
11534 1310 15729 1 149.00000 418.400000
11534 1311 14121 1 149.00000 418.400000
11464 1312 11534 1 149.00000 418.400000
11535 1313 11847 1 149.00000 418.400000
11535 1314 15970 1 149.00000 418.400000
11535 1315 13112 1 149.00000 418.400000
11535 1316 11972 1 149.00000 418.400000
11536 1317 12606 1 149.00000 418.400000
11536 1318 14279 1 149.00000 418.400000
11536 1319 15893 1 149.00000 418.400000
11536 1320 14121 1 149.00000 418.400000
11537 1321 14230 1 149.00000 418.400000
11537 1322 14247 1 149.00000 418.400000
11537 1323 15723 1 149.00000 418.400000
11537 1324 11817 1 149.00000 418.400000
11538 1325 19773 1 149.00000 418.400000
11538 1326 14437 1 149.00000 418.400000
11538 1327 18219 1 149.00000 418.400000
11538 1328 14026 1 149.00000 418.400000
18993 1329 21597 1 149.00000 418.400000
21597 1330 24012 1 149.00000 418.400000
12252 1331 18993 1 149.00000 418.400000
11539 1332 15118 1 149.00000 418.400000
11539 1333 14855 1 149.00000 418.400000
11539 1334 14074 1 149.00000 418.400000
11539 1335 13475 1 149.00000 418.400000
11540 1336 13761 1 149.00000 418.400000
11540 1337 15186 1 149.00000 418.400000
11540 1338 12339 1 149.00000 418.400000
11540 1339 13971 1 149.00000 418.400000
11541 1340 15460 1 149.00000 418.400000
11541 1341 13376 1 149.00000 418.400000
11541 1342 15723 1 149.00000 418.400000
11701 1343 19005 1 149.00000 418.400000
11621 1344 19005 1 149.00000 418.400000
11542 1345 12220 1 149.00000 418.400000
11542 1346 11728 1 149.00000 418.400000
11542 1347 14015 1 149.00000 418.400000
11542 1348 15937 1 149.00000 418.400000
13271 1349 15339 1 149.00000 418.400000
13271 1350 15061 1 149.00000 418.400000
11543 1351 13271 1 149.00000 418.400000
14956 1352 15061 1 149.00000 418.400000
11544 1353 13837 1 149.00000 418.400000
14809 1354 14900 1 149.00000 418.400000
11544 1355 15916 1 149.00000 418.400000
11544 1356 14809 1 149.00000 418.400000
12012 1357 15527 1 149.00000 418.400000
11545 1358 15060 1 149.00000 418.400000
12012 1359 14158 1 149.00000 418.400000
11545 1360 12012 1 149.00000 418.400000
11546 1361 15958 1 149.00000 418.400000
11546 1362 15513 1 149.00000 418.400000
11546 1363 13526 1 149.00000 418.400000
11546 1364 11679 1 149.00000 418.400000
11547 1365 13760 1 149.00000 418.400000
11547 1366 11981 1 149.00000 418.400000
11547 1367 14678 1 149.00000 418.400000
11547 1368 13410 1 149.00000 418.400000
11548 1369 21969 1 149.00000 418.400000
11548 1370 23949 1 149.00000 418.400000
11548 1371 13813 1 149.00000 418.400000
11548 1372 19437 1 149.00000 418.400000
11549 1373 11951 1 149.00000 418.400000
11549 1374 13381 1 149.00000 418.400000
11549 1375 14985 1 149.00000 418.400000
11550 1376 12617 1 149.00000 418.400000
11550 1377 15280 1 149.00000 418.400000
11550 1378 14070 1 149.00000 418.400000
11550 1379 12256 1 149.00000 418.400000
14326 1380 19017 1 149.00000 418.400000
19017 1381 19581 1 149.00000 418.400000
18149 1382 19017 1 149.00000 418.400000
11551 1383 14674 1 149.00000 418.400000
11551 1384 15860 1 149.00000 418.400000
11551 1385 15250 1 149.00000 418.400000
11551 1386 14457 1 149.00000 418.400000
19029 1387 21549 1 149.00000 418.400000
14373 1388 19029 1 149.00000 418.400000
15409 1389 19029 1 149.00000 418.400000
11552 1390 14795 1 149.00000 418.400000
11552 1391 13111 1 149.00000 418.400000
11552 1392 13007 1 149.00000 418.400000
11552 1393 12405 1 149.00000 418.400000
11553 1394 14899 1 149.00000 418.400000
11553 1395 13353 1 149.00000 418.400000
11553 1396 12138 1 149.00000 418.400000
11553 1397 14525 1 149.00000 418.400000
11554 1398 13867 1 149.00000 418.400000
11554 1399 12725 1 149.00000 418.400000
11554 1400 14176 1 149.00000 418.400000
11554 1401 13401 1 149.00000 418.400000
11555 1402 14692 1 149.00000 418.400000
13776 1403 15683 1 149.00000 418.400000
11555 1404 13383 1 149.00000 418.400000
11555 1405 13776 1 149.00000 418.400000
12048 1406 19041 1 149.00000 418.400000
19041 1407 24516 1 149.00000 418.400000
15079 1408 19041 1 149.00000 418.400000
12029 1409 14766 1 149.00000 418.400000
11556 1410 14766 1 149.00000 418.400000
11556 1411 15354 1 149.00000 418.400000
11556 1412 14896 1 149.00000 418.400000
14343 1413 19053 1 149.00000 418.400000
19053 1414 21477 1 149.00000 418.400000
11557 1415 15963 1 149.00000 418.400000
11557 1416 11674 1 149.00000 418.400000
11557 1417 14426 1 149.00000 418.400000
11558 1418 15021 1 149.00000 418.400000
11558 1419 15565 1 149.00000 418.400000
11558 1420 12942 1 149.00000 418.400000
11558 1421 12961 1 149.00000 418.400000
11559 1422 13386 1 149.00000 418.400000
11559 1423 12209 1 149.00000 418.400000
11559 1424 12461 1 149.00000 418.400000
11559 1425 15189 1 149.00000 418.400000
11560 1426 12688 1 149.00000 418.400000
11560 1427 12680 1 149.00000 418.400000
11560 1428 16170 1 149.00000 418.400000
11560 1429 14258 1 149.00000 418.400000
11561 1430 14829 1 149.00000 418.400000
11561 1431 13832 1 149.00000 418.400000
11561 1432 14840 1 149.00000 418.400000
11562 1433 12999 1 149.00000 418.400000
11562 1434 11854 1 149.00000 418.400000
11562 1435 14954 1 149.00000 418.400000
11563 1436 15499 1 149.00000 418.400000
11563 1437 13444 1 149.00000 418.400000
11563 1438 15312 1 149.00000 418.400000
11563 1439 12072 1 149.00000 418.400000
11564 1440 13630 1 149.00000 418.400000
11564 1441 14679 1 149.00000 418.400000
11564 1442 15927 1 149.00000 418.400000
15520 1443 19065 1 149.00000 418.400000
19065 1444 24453 1 149.00000 418.400000
11565 1445 14075 1 149.00000 418.400000
11565 1446 15959 1 149.00000 418.400000
11565 1447 16207 1 149.00000 418.400000
11565 1448 12699 1 149.00000 418.400000
16051 1449 19077 1 149.00000 418.400000
16497 1450 19077 1 149.00000 418.400000
11566 1451 12475 1 149.00000 418.400000
11566 1452 15509 1 149.00000 418.400000
11566 1453 14268 1 149.00000 418.400000
14154 1454 19089 1 149.00000 418.400000
16609 1455 19089 1 149.00000 418.400000
15186 1456 19089 1 149.00000 418.400000
11567 1457 13518 1 149.00000 418.400000
11567 1458 16020 1 149.00000 418.400000
11567 1459 15937 1 149.00000 418.400000
12306 1460 14897 1 149.00000 418.400000
11568 1461 14647 1 149.00000 418.400000
11568 1462 15505 1 149.00000 418.400000
13628 1463 14779 1 149.00000 418.400000
11569 1464 14346 1 149.00000 418.400000
11569 1465 13994 1 149.00000 418.400000
11569 1466 14028 1 149.00000 418.400000
11569 1467 14783 1 149.00000 418.400000
11931 1468 15725 1 149.00000 418.400000
12260 1469 13898 1 149.00000 418.400000
11931 1470 19101 1 149.00000 418.400000
12260 1471 19101 1 149.00000 418.400000
11570 1472 12072 1 149.00000 418.400000
11570 1473 13112 1 149.00000 418.400000
11570 1474 12426 1 149.00000 418.400000
11570 1475 12901 1 149.00000 418.400000
19113 1476 22677 1 149.00000 418.400000
14126 1477 19113 1 149.00000 418.400000
11571 1478 14695 1 149.00000 418.400000
11571 1479 15541 1 149.00000 418.400000
11571 1480 14931 1 149.00000 418.400000
11571 1481 17841 1 149.00000 418.400000
11572 1482 13942 1 149.00000 418.400000
11572 1483 15143 1 149.00000 418.400000
11572 1484 11973 1 149.00000 418.400000
11572 1485 15529 1 149.00000 418.400000
11573 1486 13897 1 149.00000 418.400000
11573 1487 15122 1 149.00000 418.400000
11573 1488 15639 1 149.00000 418.400000
11573 1489 14683 1 149.00000 418.400000
11574 1490 13267 1 149.00000 418.400000
11574 1491 13560 1 149.00000 418.400000
11574 1492 12017 1 149.00000 418.400000
11574 1493 14561 1 149.00000 418.400000
11575 1494 11901 1 149.00000 418.400000
11575 1495 16567 1 149.00000 418.400000
11575 1496 12731 1 149.00000 418.400000
11575 1497 12581 1 149.00000 418.400000
11576 1498 15431 1 149.00000 418.400000
12114 1499 13409 1 149.00000 418.400000
11576 1500 12114 1 149.00000 418.400000
11576 1501 11759 1 149.00000 418.400000
11577 1502 12044 1 149.00000 418.400000
11577 1503 12667 1 149.00000 418.400000
11577 1504 14631 1 149.00000 418.400000
11577 1505 14084 1 149.00000 418.400000
11578 1506 13852 1 149.00000 418.400000
11578 1507 13454 1 149.00000 418.400000
11578 1508 14638 1 149.00000 418.400000
11578 1509 15745 1 149.00000 418.400000
11579 1510 13492 1 149.00000 418.400000
11579 1511 14200 1 149.00000 418.400000
11579 1512 15114 1 149.00000 418.400000
11579 1513 15066 1 149.00000 418.400000
11580 1514 12692 1 149.00000 418.400000
11580 1515 14830 1 149.00000 418.400000
11580 1516 14507 1 149.00000 418.400000
11580 1517 14487 1 149.00000 418.400000
11581 1518 13998 1 149.00000 418.400000
11581 1519 14053 1 149.00000 418.400000
11581 1520 11880 1 149.00000 418.400000
11581 1521 15727 1 149.00000 418.400000
11582 1522 14111 1 149.00000 418.400000
11582 1523 14304 1 149.00000 418.400000
11582 1524 13592 1 149.00000 418.400000
11582 1525 15052 1 149.00000 418.400000
11583 1526 21405 1 149.00000 418.400000
11583 1527 14302 1 149.00000 418.400000
11583 1528 15604 1 149.00000 418.400000
11583 1529 13555 1 149.00000 418.400000
11584 1530 15172 1 149.00000 418.400000
11584 1531 15864 1 149.00000 418.400000
11584 1532 14183 1 149.00000 418.400000
11584 1533 13654 1 149.00000 418.400000
11585 1534 14375 1 149.00000 418.400000
11585 1535 14591 1 149.00000 418.400000
11585 1536 14636 1 149.00000 418.400000
11585 1537 15100 1 149.00000 418.400000
11586 1538 15993 1 149.00000 418.400000
11586 1539 12725 1 149.00000 418.400000
11586 1540 14274 1 149.00000 418.400000
13249 1541 19125 1 149.00000 418.400000
14329 1542 19125 1 149.00000 418.400000
11587 1543 16043 1 149.00000 418.400000
11587 1544 12308 1 149.00000 418.400000
11587 1545 13808 1 149.00000 418.400000
11587 1546 13448 1 149.00000 418.400000
11588 1547 12214 1 149.00000 418.400000
11588 1548 11776 1 149.00000 418.400000
11588 1549 14787 1 149.00000 418.400000
11588 1550 13426 1 149.00000 418.400000
11589 1551 14710 1 149.00000 418.400000
11589 1552 13483 1 149.00000 418.400000
11589 1553 15050 1 149.00000 418.400000
11589 1554 14422 1 149.00000 418.400000
11590 1555 12119 1 149.00000 418.400000
11590 1556 13730 1 149.00000 418.400000
11590 1557 14289 1 149.00000 418.400000
11590 1558 14485 1 149.00000 418.400000
11591 1559 14861 1 149.00000 418.400000
11591 1560 14761 1 149.00000 418.400000
11591 1561 15185 1 149.00000 418.400000
11591 1562 15939 1 149.00000 418.400000
11592 1563 23613 1 149.00000 418.400000
11592 1564 13757 1 149.00000 418.400000
11592 1565 12083 1 149.00000 418.400000
11592 1566 19509 1 149.00000 418.400000
11593 1567 11650 1 149.00000 418.400000
12217 1568 15766 1 149.00000 418.400000
11593 1569 12217 1 149.00000 418.400000
11593 1570 13459 1 149.00000 418.400000
11594 1571 12071 1 149.00000 418.400000
11594 1572 15588 1 149.00000 418.400000
11594 1573 15379 1 149.00000 418.400000
11594 1574 12049 1 149.00000 418.400000
11595 1575 15528 1 149.00000 418.400000
11808 1576 15528 1 149.00000 418.400000
11595 1577 15827 1 149.00000 418.400000
11595 1578 14393 1 149.00000 418.400000
11596 1579 13295 1 149.00000 418.400000
11596 1580 14511 1 149.00000 418.400000
11596 1581 12783 1 149.00000 418.400000
11596 1582 14241 1 149.00000 418.400000
11597 1583 11948 1 149.00000 418.400000
11597 1584 12823 1 149.00000 418.400000
11597 1585 13364 1 149.00000 418.400000
11598 1586 12263 1 149.00000 418.400000
11598 1587 16107 1 149.00000 418.400000
12181 1588 16107 1 149.00000 418.400000
11599 1589 15303 1 149.00000 418.400000
11599 1590 13471 1 149.00000 418.400000
11599 1591 15161 1 149.00000 418.400000
11599 1592 15259 1 149.00000 418.400000
11600 1593 15464 1 149.00000 418.400000
11600 1594 12984 1 149.00000 418.400000
11600 1595 14641 1 149.00000 418.400000
11601 1596 16016 1 149.00000 418.400000
11347 1597 11601 1 149.00000 418.400000
11601 1598 15094 1 149.00000 418.400000
11602 1599 13836 1 149.00000 418.400000
11602 1600 13593 1 149.00000 418.400000
11602 1601 11641 1 149.00000 418.400000
11603 1602 12008 1 149.00000 418.400000
11603 1603 13036 1 149.00000 418.400000
11603 1604 13516 1 149.00000 418.400000
11604 1605 12965 1 149.00000 418.400000
11604 1606 13937 1 149.00000 418.400000
11604 1607 14197 1 149.00000 418.400000
11604 1608 12186 1 149.00000 418.400000
11605 1609 13458 1 149.00000 418.400000
11605 1610 13955 1 149.00000 418.400000
11605 1611 12682 1 149.00000 418.400000
13458 1612 15346 1 149.00000 418.400000
11606 1613 12620 1 149.00000 418.400000
11606 1614 15714 1 149.00000 418.400000
11606 1615 15798 1 149.00000 418.400000
11607 1616 12441 1 149.00000 418.400000
11607 1617 12631 1 149.00000 418.400000
11607 1618 13609 1 149.00000 418.400000
11618 1619 13456 1 149.00000 418.400000
11608 1620 13456 1 149.00000 418.400000
11608 1621 14072 1 149.00000 418.400000
11608 1622 14438 1 149.00000 418.400000
19137 1623 24471 1 149.00000 418.400000
12808 1624 19137 1 149.00000 418.400000
11735 1625 19137 1 149.00000 418.400000
11609 1626 13690 1 149.00000 418.400000
11609 1627 12171 1 149.00000 418.400000
11609 1628 13448 1 149.00000 418.400000
11609 1629 14380 1 149.00000 418.400000
11610 1630 15454 1 149.00000 418.400000
11610 1631 15901 1 149.00000 418.400000
11610 1632 15535 1 149.00000 418.400000
13073 1633 15901 1 149.00000 418.400000
19149 1634 24102 1 149.00000 418.400000
19149 1635 24174 1 149.00000 418.400000
13364 1636 19149 1 149.00000 418.400000
11611 1637 15640 1 149.00000 418.400000
11611 1638 14631 1 149.00000 418.400000
11611 1639 13864 1 149.00000 418.400000
11611 1640 14904 1 149.00000 418.400000
11612 1641 13293 1 149.00000 418.400000
11612 1642 12514 1 149.00000 418.400000
11612 1643 21285 1 149.00000 418.400000
19161 1644 24486 1 149.00000 418.400000
19161 1645 24285 1 149.00000 418.400000
14350 1646 19161 1 149.00000 418.400000
11483 1647 14100 1 149.00000 418.400000
12102 1648 13085 1 149.00000 418.400000
11483 1649 12102 1 149.00000 418.400000
12982 1650 19173 1 149.00000 418.400000
15994 1651 19173 1 149.00000 418.400000
19185 1652 19197 1 149.00000 418.400000
12547 1653 19185 1 149.00000 418.400000
11756 1654 19185 1 149.00000 418.400000
12968 1655 19197 1 149.00000 418.400000
11614 1656 16028 1 149.00000 418.400000
11614 1657 13173 1 149.00000 418.400000
11614 1658 14263 1 149.00000 418.400000
11614 1659 12182 1 149.00000 418.400000
11615 1660 12526 1 149.00000 418.400000
11615 1661 16200 1 149.00000 418.400000
11615 1662 15214 1 149.00000 418.400000
11615 1663 13488 1 149.00000 418.400000
11616 1664 12983 1 149.00000 418.400000
11616 1665 12448 1 149.00000 418.400000
11616 1666 12597 1 149.00000 418.400000
11616 1667 15288 1 149.00000 418.400000
11617 1668 14935 1 149.00000 418.400000
11617 1669 15256 1 149.00000 418.400000
11617 1670 16177 1 149.00000 418.400000
11617 1671 12028 1 149.00000 418.400000
11618 1672 13380 1 149.00000 418.400000
11618 1673 13547 1 149.00000 418.400000
11619 1674 15438 1 149.00000 418.400000
11619 1675 13786 1 149.00000 418.400000
11619 1676 14633 1 149.00000 418.400000
11619 1677 12664 1 149.00000 418.400000
11620 1678 15273 1 149.00000 418.400000
11620 1679 12446 1 149.00000 418.400000
11620 1680 14191 1 149.00000 418.400000
11621 1681 14423 1 149.00000 418.400000
11621 1682 14160 1 149.00000 418.400000
11621 1683 16595 1 149.00000 418.400000
22569 1684 24644 1 149.00000 418.400000
19209 1685 21837 1 149.00000 418.400000
13715 1686 17169 1 149.00000 418.400000
13715 1687 19221 1 149.00000 418.400000
13152 1688 19221 1 149.00000 418.400000
19233 1689 20421 1 149.00000 418.400000
14555 1690 19233 1 149.00000 418.400000
14708 1691 19233 1 149.00000 418.400000
11622 1692 13608 1 149.00000 418.400000
11622 1693 13077 1 149.00000 418.400000
11622 1694 15319 1 149.00000 418.400000
11622 1695 13987 1 149.00000 418.400000
12250 1696 15904 1 149.00000 418.400000
11623 1697 12250 1 149.00000 418.400000
11623 1698 11749 1 149.00000 418.400000
11623 1699 20529 1 149.00000 418.400000
11624 1700 15657 1 149.00000 418.400000
11624 1701 23205 1 149.00000 418.400000
11624 1702 13368 1 149.00000 418.400000
11624 1703 21645 1 149.00000 418.400000
11625 1704 14770 1 149.00000 418.400000
11625 1705 12788 1 149.00000 418.400000
11625 1706 16009 1 149.00000 418.400000
11625 1707 14329 1 149.00000 418.400000
11626 1708 12238 1 149.00000 418.400000
11626 1709 14783 1 149.00000 418.400000
11626 1710 14712 1 149.00000 418.400000
11627 1711 15005 1 149.00000 418.400000
14788 1712 15005 1 149.00000 418.400000
11627 1713 15368 1 149.00000 418.400000
11627 1714 14362 1 149.00000 418.400000
11628 1715 24168 1 149.00000 418.400000
11628 1716 12972 1 149.00000 418.400000
11628 1717 16553 1 149.00000 418.400000
12873 1718 19245 1 149.00000 418.400000
11629 1719 14375 1 149.00000 418.400000
12643 1720 15819 1 149.00000 418.400000
12643 1721 15735 1 149.00000 418.400000
11629 1722 12643 1 149.00000 418.400000
11630 1723 13142 1 149.00000 418.400000
11630 1724 15232 1 149.00000 418.400000
11630 1725 15239 1 149.00000 418.400000
11630 1726 16002 1 149.00000 418.400000
19257 1727 24405 1 149.00000 418.400000
11631 1728 15656 1 149.00000 418.400000
11631 1729 13996 1 149.00000 418.400000
11631 1730 11966 1 149.00000 418.400000
11632 1731 14728 1 149.00000 418.400000
11632 1732 15594 1 149.00000 418.400000
11632 1733 13045 1 149.00000 418.400000
11632 1734 12942 1 149.00000 418.400000
14517 1735 19269 1 149.00000 418.400000
19269 1736 24249 1 149.00000 418.400000
13747 1737 19269 1 149.00000 418.400000
11633 1738 15459 1 149.00000 418.400000
11633 1739 16179 1 149.00000 418.400000
13989 1740 15459 1 149.00000 418.400000
12206 1741 16179 1 149.00000 418.400000
16959 1742 19281 1 149.00000 418.400000
11634 1743 12095 1 149.00000 418.400000
11634 1744 12125 1 149.00000 418.400000
11634 1745 14383 1 149.00000 418.400000
11634 1746 15219 1 149.00000 418.400000
11635 1747 12745 1 149.00000 418.400000
11635 1748 15082 1 149.00000 418.400000
11382 1749 14705 1 149.00000 418.400000
15888 1750 21033 1 149.00000 418.400000
19293 1751 24513 1 149.00000 418.400000
13722 1752 19293 1 149.00000 418.400000
13969 1753 19293 1 149.00000 418.400000
11636 1754 15393 1 149.00000 418.400000
11636 1755 24159 1 149.00000 418.400000
11636 1756 23955 1 149.00000 418.400000
11636 1757 12909 1 149.00000 418.400000
15836 1758 19305 1 149.00000 418.400000
13969 1759 19305 1 149.00000 418.400000
15406 1760 19305 1 149.00000 418.400000
11637 1761 12780 1 149.00000 418.400000
11637 1762 15218 1 149.00000 418.400000
11637 1763 11910 1 149.00000 418.400000
11638 1764 12028 1 149.00000 418.400000
11638 1765 13509 1 149.00000 418.400000
11638 1766 12121 1 149.00000 418.400000
11638 1767 12187 1 149.00000 418.400000
11639 1768 13945 1 149.00000 418.400000
11639 1769 12610 1 149.00000 418.400000
11639 1770 12551 1 149.00000 418.400000
11639 1771 13836 1 149.00000 418.400000
11640 1772 17155 1 149.00000 418.400000
11640 1773 12230 1 149.00000 418.400000
11640 1774 23373 1 149.00000 418.400000
11640 1775 14090 1 149.00000 418.400000
16198 1776 19317 1 149.00000 418.400000
12497 1777 19317 1 149.00000 418.400000
11641 1778 14250 1 149.00000 418.400000
11641 1779 12657 1 149.00000 418.400000
11641 1780 15936 1 149.00000 418.400000
11642 1781 24426 1 149.00000 418.400000
11642 1782 12574 1 149.00000 418.400000
11642 1783 13600 1 149.00000 418.400000
11642 1784 15655 1 149.00000 418.400000
11643 1785 13753 1 149.00000 418.400000
11643 1786 14742 1 149.00000 418.400000
11643 1787 14586 1 149.00000 418.400000
11644 1788 14646 1 149.00000 418.400000
11644 1789 14217 1 149.00000 418.400000
11644 1790 14429 1 149.00000 418.400000
11644 1791 12656 1 149.00000 418.400000
11645 1792 12605 1 149.00000 418.400000
11645 1793 12698 1 149.00000 418.400000
11645 1794 13726 1 149.00000 418.400000
11646 1795 13330 1 149.00000 418.400000
11646 1796 14589 1 149.00000 418.400000
11646 1797 15856 1 149.00000 418.400000
11646 1798 13865 1 149.00000 418.400000
11647 1799 13788 1 149.00000 418.400000
11647 1800 13028 1 149.00000 418.400000
11647 1801 12410 1 149.00000 418.400000
11647 1802 12131 1 149.00000 418.400000
11648 1803 11903 1 149.00000 418.400000
11648 1804 14247 1 149.00000 418.400000
11648 1805 16203 1 149.00000 418.400000
11648 1806 14340 1 149.00000 418.400000
14714 1807 19329 1 149.00000 418.400000
13020 1808 19329 1 149.00000 418.400000
11649 1809 12265 1 149.00000 418.400000
11649 1810 11924 1 149.00000 418.400000
11649 1811 13210 1 149.00000 418.400000
11650 1812 13418 1 149.00000 418.400000
11650 1813 11711 1 149.00000 418.400000
11650 1814 13879 1 149.00000 418.400000
11651 1815 12441 1 149.00000 418.400000
11651 1816 12709 1 149.00000 418.400000
11651 1817 13965 1 149.00000 418.400000
11651 1818 15988 1 149.00000 418.400000
11652 1819 11884 1 149.00000 418.400000
11652 1820 12805 1 149.00000 418.400000
11652 1821 15174 1 149.00000 418.400000
11653 1822 13159 1 149.00000 418.400000
11653 1823 14465 1 149.00000 418.400000
11653 1824 16207 1 149.00000 418.400000
11654 1825 15034 1 149.00000 418.400000
11654 1826 15558 1 149.00000 418.400000
11654 1827 13719 1 149.00000 418.400000
11654 1828 15507 1 149.00000 418.400000
13140 1829 19341 1 149.00000 418.400000
19341 1830 22833 1 149.00000 418.400000
13686 1831 19341 1 149.00000 418.400000
11655 1832 13857 1 149.00000 418.400000
11655 1833 12352 1 149.00000 418.400000
11655 1834 14975 1 149.00000 418.400000
11655 1835 15189 1 149.00000 418.400000
11656 1836 13440 1 149.00000 418.400000
11656 1837 12706 1 149.00000 418.400000
11656 1838 15346 1 149.00000 418.400000
11657 1839 14155 1 149.00000 418.400000
11657 1840 13047 1 149.00000 418.400000
11657 1841 12227 1 149.00000 418.400000
11657 1842 14169 1 149.00000 418.400000
11658 1843 15882 1 149.00000 418.400000
11658 1844 15502 1 149.00000 418.400000
11658 1845 12135 1 149.00000 418.400000
11658 1846 15035 1 149.00000 418.400000
11659 1847 12407 1 149.00000 418.400000
11659 1848 12301 1 149.00000 418.400000
11659 1849 12511 1 149.00000 418.400000
11659 1850 13906 1 149.00000 418.400000
11660 1851 14164 1 149.00000 418.400000
11660 1852 12759 1 149.00000 418.400000
11660 1853 15722 1 149.00000 418.400000
11660 1854 11721 1 149.00000 418.400000
11661 1855 14560 1 149.00000 418.400000
11661 1856 14981 1 149.00000 418.400000
11661 1857 15272 1 149.00000 418.400000
18441 1858 22605 1 149.00000 418.400000
11662 1859 14903 1 149.00000 418.400000
11662 1860 15063 1 149.00000 418.400000
11662 1861 12349 1 149.00000 418.400000
11662 1862 12792 1 149.00000 418.400000
12672 1863 19353 1 149.00000 418.400000
19353 1864 21225 1 149.00000 418.400000
14622 1865 19353 1 149.00000 418.400000
16154 1866 19365 1 149.00000 418.400000
15197 1867 19365 1 149.00000 418.400000
11663 1868 13954 1 149.00000 418.400000
11663 1869 16150 1 149.00000 418.400000
11663 1870 15500 1 149.00000 418.400000
11663 1871 15710 1 149.00000 418.400000
11664 1872 12977 1 149.00000 418.400000
11664 1873 11698 1 149.00000 418.400000
11664 1874 13496 1 149.00000 418.400000
11664 1875 15940 1 149.00000 418.400000
15482 1876 19377 1 149.00000 418.400000
19377 1877 24279 1 149.00000 418.400000
16178 1878 19377 1 149.00000 418.400000
11665 1879 13907 1 149.00000 418.400000
11665 1880 15678 1 149.00000 418.400000
11665 1881 12806 1 149.00000 418.400000
11665 1882 12273 1 149.00000 418.400000
11666 1883 13802 1 149.00000 418.400000
11666 1884 12782 1 149.00000 418.400000
11666 1885 13833 1 149.00000 418.400000
11667 1886 12097 1 149.00000 418.400000
11667 1887 14325 1 149.00000 418.400000
11667 1888 13106 1 149.00000 418.400000
19389 1889 23757 1 149.00000 418.400000
16060 1890 19389 1 149.00000 418.400000
12888 1891 19389 1 149.00000 418.400000
11668 1892 13730 1 149.00000 418.400000
11668 1893 14608 1 149.00000 418.400000
13730 1894 15325 1 149.00000 418.400000
11668 1895 15341 1 149.00000 418.400000
16455 1896 19401 1 149.00000 418.400000
16082 1897 19401 1 149.00000 418.400000
11669 1898 11836 1 149.00000 418.400000
11669 1899 14282 1 149.00000 418.400000
11669 1900 14187 1 149.00000 418.400000
11669 1901 15870 1 149.00000 418.400000
14122 1902 16196 1 149.00000 418.400000
11670 1903 12716 1 149.00000 418.400000
15167 1904 15521 1 149.00000 418.400000
11670 1905 14122 1 149.00000 418.400000
11671 1906 15025 1 149.00000 418.400000
11671 1907 14229 1 149.00000 418.400000
11671 1908 15738 1 149.00000 418.400000
11671 1909 11986 1 149.00000 418.400000
11672 1910 12763 1 149.00000 418.400000
11672 1911 13822 1 149.00000 418.400000
13822 1912 14590 1 149.00000 418.400000
11672 1913 13485 1 149.00000 418.400000
11673 1914 15935 1 149.00000 418.400000
11673 1915 15763 1 149.00000 418.400000
11673 1916 12904 1 149.00000 418.400000
11673 1917 11970 1 149.00000 418.400000
11674 1918 14695 1 149.00000 418.400000
11674 1919 13236 1 149.00000 418.400000
11675 1920 15960 1 149.00000 418.400000
11675 1921 24150 1 149.00000 418.400000
11675 1922 24564 1 149.00000 418.400000
11675 1923 13173 1 149.00000 418.400000
14997 1924 15772 1 149.00000 418.400000
11676 1925 14997 1 149.00000 418.400000
11676 1926 23967 1 149.00000 418.400000
14443 1927 23967 1 149.00000 418.400000
12719 1928 15946 1 149.00000 418.400000
11677 1929 20397 1 149.00000 418.400000
11784 1930 15706 1 149.00000 418.400000
11677 1931 12719 1 149.00000 418.400000
11678 1932 15718 1 149.00000 418.400000
11678 1933 15754 1 149.00000 418.400000
11678 1934 14544 1 149.00000 418.400000
11678 1935 14652 1 149.00000 418.400000
11679 1936 13718 1 149.00000 418.400000
11679 1937 11920 1 149.00000 418.400000
11679 1938 13286 1 149.00000 418.400000
20301 1939 23481 1 149.00000 418.400000
11680 1940 11730 1 149.00000 418.400000
11680 1941 13245 1 149.00000 418.400000
11680 1942 15380 1 149.00000 418.400000
11681 1943 12497 1 149.00000 418.400000
11681 1944 16945 1 149.00000 418.400000
11681 1945 22233 1 149.00000 418.400000
11309 1946 12399 1 149.00000 418.400000
11682 1947 14832 1 149.00000 418.400000
11309 1948 13794 1 149.00000 418.400000
11683 1949 14797 1 149.00000 418.400000
11683 1950 12922 1 149.00000 418.400000
11683 1951 24309 1 149.00000 418.400000
11684 1952 13452 1 149.00000 418.400000
11684 1953 13834 1 149.00000 418.400000
11684 1954 13919 1 149.00000 418.400000
11684 1955 12805 1 149.00000 418.400000
11685 1956 11975 1 149.00000 418.400000
11685 1957 12209 1 149.00000 418.400000
11685 1958 22353 1 149.00000 418.400000
11685 1959 12789 1 149.00000 418.400000
11686 1960 17631 1 149.00000 418.400000
11686 1961 13605 1 149.00000 418.400000
11686 1962 22401 1 149.00000 418.400000
11686 1963 12600 1 149.00000 418.400000
11687 1964 11831 1 149.00000 418.400000
11687 1965 14174 1 149.00000 418.400000
11687 1966 16022 1 149.00000 418.400000
11687 1967 15677 1 149.00000 418.400000
11688 1968 16143 1 149.00000 418.400000
11688 1969 18177 1 149.00000 418.400000
11688 1970 24189 1 149.00000 418.400000
11689 1971 24210 1 149.00000 418.400000
11689 1972 21129 1 149.00000 418.400000
11689 1973 15381 1 149.00000 418.400000
13273 1974 15381 1 149.00000 418.400000
14383 1975 15523 1 149.00000 418.400000
11690 1976 14587 1 149.00000 418.400000
11690 1977 15523 1 149.00000 418.400000
11690 1978 12557 1 149.00000 418.400000
11691 1979 11716 1 149.00000 418.400000
11691 1980 12041 1 149.00000 418.400000
11691 1981 13097 1 149.00000 418.400000
11691 1982 14999 1 149.00000 418.400000
11692 1983 12741 1 149.00000 418.400000
11692 1984 24534 1 149.00000 418.400000
11692 1985 13714 1 149.00000 418.400000
11692 1986 19473 1 149.00000 418.400000
11693 1987 21225 1 149.00000 418.400000
11693 1988 11748 1 149.00000 418.400000
15558 1989 15585 1 149.00000 418.400000
11693 1990 15585 1 149.00000 418.400000
11694 1991 13660 1 149.00000 418.400000
11694 1992 15838 1 149.00000 418.400000
11694 1993 24769 1 149.00000 418.400000
11694 1994 11904 1 149.00000 418.400000
11695 1995 13489 1 149.00000 418.400000
11695 1996 12912 1 149.00000 418.400000
11695 1997 14153 1 149.00000 418.400000
11695 1998 15171 1 149.00000 418.400000
11696 1999 14436 1 149.00000 418.400000
11696 2000 12837 1 149.00000 418.400000
11696 2001 14101 1 149.00000 418.400000
11696 2002 14729 1 149.00000 418.400000
11697 2003 11934 1 149.00000 418.400000
11697 2004 13644 1 149.00000 418.400000
11697 2005 15265 1 149.00000 418.400000
11698 2006 15682 1 149.00000 418.400000
11698 2007 14512 1 149.00000 418.400000
11698 2008 14336 1 149.00000 418.400000
23289 2009 24649 1 149.00000 418.400000
11699 2010 14517 1 149.00000 418.400000
11699 2011 12727 1 149.00000 418.400000
11699 2012 12809 1 149.00000 418.400000
11699 2013 13003 1 149.00000 418.400000
11700 2014 21141 1 149.00000 418.400000
11700 2015 22377 1 149.00000 418.400000
11700 2016 15338 1 149.00000 418.400000
11700 2017 12922 1 149.00000 418.400000
13378 2018 19413 1 149.00000 418.400000
19413 2019 24015 1 149.00000 418.400000
11701 2020 14771 1 149.00000 418.400000
11701 2021 20817 1 149.00000 418.400000
11701 2022 12005 1 149.00000 418.400000
11702 2023 12572 1 149.00000 418.400000
11702 2024 14721 1 149.00000 418.400000
11702 2025 12613 1 149.00000 418.400000
11702 2026 24679 1 149.00000 418.400000
19425 2027 19977 1 149.00000 418.400000
15508 2028 19425 1 149.00000 418.400000
11703 2029 13122 1 149.00000 418.400000
11703 2030 14798 1 149.00000 418.400000
11703 2031 24093 1 149.00000 418.400000
11703 2032 12242 1 149.00000 418.400000
11704 2033 13639 1 149.00000 418.400000
11704 2034 16009 1 149.00000 418.400000
11704 2035 15060 1 149.00000 418.400000
11704 2036 24558 1 149.00000 418.400000
11705 2037 14554 1 149.00000 418.400000
11705 2038 14693 1 149.00000 418.400000
11705 2039 14608 1 149.00000 418.400000
11705 2040 11918 1 149.00000 418.400000
16050 2041 19437 1 149.00000 418.400000
19437 2042 24321 1 149.00000 418.400000
19449 2043 22449 1 149.00000 418.400000
14872 2044 19449 1 149.00000 418.400000
19449 2045 22005 1 149.00000 418.400000
16539 2046 19461 1 149.00000 418.400000
19461 2047 23970 1 149.00000 418.400000
14912 2048 19461 1 149.00000 418.400000
11706 2049 12857 1 149.00000 418.400000
11706 2050 15028 1 149.00000 418.400000
11706 2051 13212 1 149.00000 418.400000
11706 2052 12924 1 149.00000 418.400000
11707 2053 11712 1 149.00000 418.400000
11707 2054 12882 1 149.00000 418.400000
11708 2055 11972 1 149.00000 418.400000
11708 2056 15619 1 149.00000 418.400000
11708 2057 15758 1 149.00000 418.400000
11708 2058 11896 1 149.00000 418.400000
11709 2059 13036 1 149.00000 418.400000
11709 2060 11974 1 149.00000 418.400000
11709 2061 13892 1 149.00000 418.400000
11710 2062 15552 1 149.00000 418.400000
11710 2063 14751 1 149.00000 418.400000
11710 2064 12145 1 149.00000 418.400000
11710 2065 15285 1 149.00000 418.400000
19473 2066 21897 1 149.00000 418.400000
11711 2067 13272 1 149.00000 418.400000
11711 2068 14982 1 149.00000 418.400000
11711 2069 12734 1 149.00000 418.400000
11712 2070 11765 1 149.00000 418.400000
11712 2071 14116 1 149.00000 418.400000
11713 2072 13606 1 149.00000 418.400000
11713 2073 14642 1 149.00000 418.400000
11408 2074 15453 1 149.00000 418.400000
11714 2075 12225 1 149.00000 418.400000
11714 2076 14077 1 149.00000 418.400000
11714 2077 14838 1 149.00000 418.400000
11714 2078 16113 1 149.00000 418.400000
11715 2079 13839 1 149.00000 418.400000
11715 2080 14517 1 149.00000 418.400000
11715 2081 12671 1 149.00000 418.400000
11716 2082 12133 1 149.00000 418.400000
11716 2083 15804 1 149.00000 418.400000
11717 2084 14127 1 149.00000 418.400000
11717 2085 14464 1 149.00000 418.400000
11717 2086 15709 1 149.00000 418.400000
11717 2087 12616 1 149.00000 418.400000
11718 2088 12134 1 149.00000 418.400000
11718 2089 13384 1 149.00000 418.400000
11718 2090 12843 1 149.00000 418.400000
11718 2091 13597 1 149.00000 418.400000
11719 2092 15450 1 149.00000 418.400000
11719 2093 13399 1 149.00000 418.400000
11719 2094 14486 1 149.00000 418.400000
11719 2095 20349 1 149.00000 418.400000
14144 2096 19485 1 149.00000 418.400000
19485 2097 20373 1 149.00000 418.400000
11720 2098 16023 1 149.00000 418.400000
16023 2099 24069 1 149.00000 418.400000
11720 2100 18163 1 149.00000 418.400000
11721 2101 11742 1 149.00000 418.400000
11721 2102 15475 1 149.00000 418.400000
11721 2103 15474 1 149.00000 418.400000
11722 2104 15913 1 149.00000 418.400000
11722 2105 13173 1 149.00000 418.400000
11722 2106 15716 1 149.00000 418.400000
11723 2107 22209 1 149.00000 418.400000
11723 2108 16040 1 149.00000 418.400000
11724 2109 12548 1 149.00000 418.400000
11724 2110 15467 1 149.00000 418.400000
11724 2111 14274 1 149.00000 418.400000
11724 2112 24030 1 149.00000 418.400000
11725 2113 15632 1 149.00000 418.400000
11725 2114 12735 1 149.00000 418.400000
11725 2115 13211 1 149.00000 418.400000
11725 2116 14899 1 149.00000 418.400000
11956 2117 13539 1 149.00000 418.400000
11726 2118 13539 1 149.00000 418.400000
11726 2119 15618 1 149.00000 418.400000
11726 2120 13748 1 149.00000 418.400000
11727 2121 13685 1 149.00000 418.400000
11727 2122 13171 1 149.00000 418.400000
11727 2123 12515 1 149.00000 418.400000
11727 2124 16074 1 149.00000 418.400000
11728 2125 16116 1 149.00000 418.400000
11728 2126 12916 1 149.00000 418.400000
11729 2127 12104 1 149.00000 418.400000
11729 2128 12388 1 149.00000 418.400000
11729 2129 15744 1 149.00000 418.400000
11729 2130 15147 1 149.00000 418.400000
11730 2131 14530 1 149.00000 418.400000
11730 2132 14016 1 149.00000 418.400000
11731 2133 11783 1 149.00000 418.400000
11731 2134 13067 1 149.00000 418.400000
11731 2135 14906 1 149.00000 418.400000
11731 2136 13390 1 149.00000 418.400000
11732 2137 13848 1 149.00000 418.400000
11732 2138 15250 1 149.00000 418.400000
11732 2139 19929 1 149.00000 418.400000
11733 2140 13568 1 149.00000 418.400000
11733 2141 12833 1 149.00000 418.400000
11733 2142 12532 1 149.00000 418.400000
11733 2143 14803 1 149.00000 418.400000
11734 2144 15904 1 149.00000 418.400000
11734 2145 12828 1 149.00000 418.400000
11734 2146 13255 1 149.00000 418.400000
11734 2147 12854 1 149.00000 418.400000
17799 2148 19497 1 149.00000 418.400000
11735 2149 13187 1 149.00000 418.400000
11735 2150 24573 1 149.00000 418.400000
11735 2151 14655 1 149.00000 418.400000
11736 2152 15441 1 149.00000 418.400000
11736 2153 15695 1 149.00000 418.400000
11736 2154 14804 1 149.00000 418.400000
11736 2155 15924 1 149.00000 418.400000
11737 2156 15506 1 149.00000 418.400000
11737 2157 15914 1 149.00000 418.400000
11737 2158 13527 1 149.00000 418.400000
14106 2159 19509 1 149.00000 418.400000
12369 2160 19509 1 149.00000 418.400000
12533 2161 19521 1 149.00000 418.400000
16092 2162 19521 1 149.00000 418.400000
14089 2163 21873 1 149.00000 418.400000
19521 2164 21873 1 149.00000 418.400000
19533 2165 23481 1 149.00000 418.400000
13648 2166 19533 1 149.00000 418.400000
11738 2167 15006 1 149.00000 418.400000
11738 2168 14134 1 149.00000 418.400000
11738 2169 15057 1 149.00000 418.400000
11738 2170 14267 1 149.00000 418.400000
11739 2171 13092 1 149.00000 418.400000
11739 2172 14354 1 149.00000 418.400000
11739 2173 16052 1 149.00000 418.400000
11739 2174 15088 1 149.00000 418.400000
11740 2175 12543 1 149.00000 418.400000
16035 2176 17547 1 149.00000 418.400000
11740 2177 23001 1 149.00000 418.400000
11740 2178 16035 1 149.00000 418.400000
11741 2179 14977 1 149.00000 418.400000
11741 2180 14093 1 149.00000 418.400000
11742 2181 15407 1 149.00000 418.400000
11742 2182 13752 1 149.00000 418.400000
11742 2183 13591 1 149.00000 418.400000
11743 2184 12355 1 149.00000 418.400000
11743 2185 14336 1 149.00000 418.400000
11743 2186 16156 1 149.00000 418.400000
11743 2187 13905 1 149.00000 418.400000
11744 2188 12564 1 149.00000 418.400000
11744 2189 15767 1 149.00000 418.400000
11744 2190 12158 1 149.00000 418.400000
11744 2191 13576 1 149.00000 418.400000
11745 2192 16148 1 149.00000 418.400000
11745 2193 15945 1 149.00000 418.400000
15045 2194 15966 1 149.00000 418.400000
11745 2195 15966 1 149.00000 418.400000
11746 2196 15434 1 149.00000 418.400000
11746 2197 15237 1 149.00000 418.400000
11746 2198 15661 1 149.00000 418.400000
11746 2199 14808 1 149.00000 418.400000
14933 2200 19545 1 149.00000 418.400000
14612 2201 19545 1 149.00000 418.400000
11747 2202 12511 1 149.00000 418.400000
11747 2203 12489 1 149.00000 418.400000
11747 2204 15695 1 149.00000 418.400000
11747 2205 13541 1 149.00000 418.400000
11748 2206 15564 1 149.00000 418.400000
11748 2207 12815 1 149.00000 418.400000
11748 2208 11754 1 149.00000 418.400000
11749 2209 14802 1 149.00000 418.400000
11749 2210 12704 1 149.00000 418.400000
11749 2211 12650 1 149.00000 418.400000
11750 2212 12847 1 149.00000 418.400000
11750 2213 14969 1 149.00000 418.400000
11750 2214 12374 1 149.00000 418.400000
11750 2215 16141 1 149.00000 418.400000
12130 2216 19557 1 149.00000 418.400000
19557 2217 20613 1 149.00000 418.400000
11751 2218 14965 1 149.00000 418.400000
11751 2219 12393 1 149.00000 418.400000
11751 2220 15187 1 149.00000 418.400000
11751 2221 15408 1 149.00000 418.400000
11752 2222 12934 1 149.00000 418.400000
11752 2223 14877 1 149.00000 418.400000
11752 2224 13491 1 149.00000 418.400000
11752 2225 14224 1 149.00000 418.400000
11753 2226 13136 1 149.00000 418.400000
11753 2227 15321 1 149.00000 418.400000
11753 2228 15115 1 149.00000 418.400000
11753 2229 13127 1 149.00000 418.400000
11754 2230 14721 1 149.00000 418.400000
11754 2231 15507 1 149.00000 418.400000
11754 2232 12672 1 149.00000 418.400000
12251 2233 19569 1 149.00000 418.400000
19569 2234 21453 1 149.00000 418.400000
11755 2235 13601 1 149.00000 418.400000
11755 2236 12658 1 149.00000 418.400000
11755 2237 14485 1 149.00000 418.400000
11755 2238 13125 1 149.00000 418.400000
11756 2239 24039 1 149.00000 418.400000
11756 2240 22425 1 149.00000 418.400000
11756 2241 12278 1 149.00000 418.400000
11757 2242 15679 1 149.00000 418.400000
11757 2243 13465 1 149.00000 418.400000
11757 2244 12670 1 149.00000 418.400000
11757 2245 15486 1 149.00000 418.400000
11758 2246 17253 1 149.00000 418.400000
11758 2247 16128 1 149.00000 418.400000
11758 2248 12857 1 149.00000 418.400000
11758 2249 14641 1 149.00000 418.400000
11759 2250 14248 1 149.00000 418.400000
11759 2251 12736 1 149.00000 418.400000
11759 2252 15204 1 149.00000 418.400000
11760 2253 24000 1 149.00000 418.400000
11760 2254 13282 1 149.00000 418.400000
11760 2255 13351 1 149.00000 418.400000
11760 2256 13677 1 149.00000 418.400000
11761 2257 12678 1 149.00000 418.400000
11761 2258 14287 1 149.00000 418.400000
11761 2259 15660 1 149.00000 418.400000
11761 2260 13180 1 149.00000 418.400000
11762 2261 14433 1 149.00000 418.400000
11762 2262 15737 1 149.00000 418.400000
11762 2263 12795 1 149.00000 418.400000
11762 2264 14672 1 149.00000 418.400000
11763 2265 14323 1 149.00000 418.400000
11763 2266 12978 1 149.00000 418.400000
11763 2267 13463 1 149.00000 418.400000
11763 2268 12164 1 149.00000 418.400000
11940 2269 16085 1 149.00000 418.400000
11764 2270 16085 1 149.00000 418.400000
11764 2271 15950 1 149.00000 418.400000
11764 2272 11980 1 149.00000 418.400000
11765 2273 12425 1 149.00000 418.400000
11765 2274 14584 1 149.00000 418.400000
11765 2275 14833 1 149.00000 418.400000
11766 2276 14042 1 149.00000 418.400000
11766 2277 12689 1 149.00000 418.400000
11766 2278 13128 1 149.00000 418.400000
11766 2279 15883 1 149.00000 418.400000
11767 2280 14962 1 149.00000 418.400000
11767 2281 13526 1 149.00000 418.400000
11767 2282 15102 1 149.00000 418.400000
11767 2283 15251 1 149.00000 418.400000
11768 2284 13243 1 149.00000 418.400000
11768 2285 13257 1 149.00000 418.400000
11768 2286 12057 1 149.00000 418.400000
11768 2287 14583 1 149.00000 418.400000
11769 2288 14034 1 149.00000 418.400000
11769 2289 12382 1 149.00000 418.400000
11769 2290 14519 1 149.00000 418.400000
11770 2291 16076 1 149.00000 418.400000
11770 2292 14228 1 149.00000 418.400000
11770 2293 14334 1 149.00000 418.400000
11770 2294 11990 1 149.00000 418.400000
15031 2295 19581 1 149.00000 418.400000
12499 2296 19593 1 149.00000 418.400000
19593 2297 21045 1 149.00000 418.400000
17449 2298 19593 1 149.00000 418.400000
13519 2299 19605 1 149.00000 418.400000
11771 2300 15889 1 149.00000 418.400000
11771 2301 14637 1 149.00000 418.400000
11771 2302 11973 1 149.00000 418.400000
11771 2303 13603 1 149.00000 418.400000
13494 2304 19617 1 149.00000 418.400000
11772 2305 15796 1 149.00000 418.400000
11772 2306 13809 1 149.00000 418.400000
11772 2307 12889 1 149.00000 418.400000
11772 2308 15434 1 149.00000 418.400000
11773 2309 12274 1 149.00000 418.400000
11773 2310 15188 1 149.00000 418.400000
11773 2311 14833 1 149.00000 418.400000
11773 2312 15275 1 149.00000 418.400000
11774 2313 24552 1 149.00000 418.400000
11774 2314 13137 1 149.00000 418.400000
11774 2315 13473 1 149.00000 418.400000
11774 2316 14882 1 149.00000 418.400000
11775 2317 15816 1 149.00000 418.400000
11775 2318 15841 1 149.00000 418.400000
11775 2319 13161 1 149.00000 418.400000
11775 2320 12472 1 149.00000 418.400000
11776 2321 13896 1 149.00000 418.400000
11776 2322 14460 1 149.00000 418.400000
11776 2323 14976 1 149.00000 418.400000
19641 2324 20925 1 149.00000 418.400000
14594 2325 19641 1 149.00000 418.400000
11777 2326 13209 1 149.00000 418.400000
11777 2327 12896 1 149.00000 418.400000
11777 2328 11826 1 149.00000 418.400000
11777 2329 13658 1 149.00000 418.400000
11778 2330 14286 1 149.00000 418.400000
11778 2331 16070 1 149.00000 418.400000
13517 2332 14286 1 149.00000 418.400000
11779 2333 12186 1 149.00000 418.400000
11779 2334 12025 1 149.00000 418.400000
11779 2335 14043 1 149.00000 418.400000
11779 2336 14453 1 149.00000 418.400000
14628 2337 15041 1 149.00000 418.400000
11608 2338 11780 1 149.00000 418.400000
15041 2339 15804 1 149.00000 418.400000
11780 2340 15041 1 149.00000 418.400000
11781 2341 14806 1 149.00000 418.400000
12251 2342 14288 1 149.00000 418.400000
11781 2343 14288 1 149.00000 418.400000
11782 2344 12373 1 149.00000 418.400000
11782 2345 13005 1 149.00000 418.400000
11782 2346 15753 1 149.00000 418.400000
11782 2347 14807 1 149.00000 418.400000
11783 2348 13191 1 149.00000 418.400000
11783 2349 15597 1 149.00000 418.400000
11784 2350 12719 1 149.00000 418.400000
11784 2351 14031 1 149.00000 418.400000
12719 2352 15121 1 149.00000 418.400000
11784 2353 15023 1 149.00000 418.400000
11785 2354 15668 1 149.00000 418.400000
11785 2355 15831 1 149.00000 418.400000
11785 2356 12652 1 149.00000 418.400000
11785 2357 13412 1 149.00000 418.400000
11786 2358 12851 1 149.00000 418.400000
11786 2359 13818 1 149.00000 418.400000
11786 2360 13967 1 149.00000 418.400000
11786 2361 14399 1 149.00000 418.400000
11787 2362 13137 1 149.00000 418.400000
11787 2363 14440 1 149.00000 418.400000
11787 2364 14490 1 149.00000 418.400000
11787 2365 12077 1 149.00000 418.400000
11788 2366 13289 1 149.00000 418.400000
11788 2367 14947 1 149.00000 418.400000
11788 2368 13385 1 149.00000 418.400000
11788 2369 13137 1 149.00000 418.400000
11789 2370 14554 1 149.00000 418.400000
11789 2371 14174 1 149.00000 418.400000
11789 2372 13017 1 149.00000 418.400000
11789 2373 15478 1 149.00000 418.400000
11790 2374 14520 1 149.00000 418.400000
11790 2375 12348 1 149.00000 418.400000
11790 2376 14523 1 149.00000 418.400000
11790 2377 13491 1 149.00000 418.400000
11791 2378 11795 1 149.00000 418.400000
11791 2379 13989 1 149.00000 418.400000
11791 2380 13001 1 149.00000 418.400000
11791 2381 13050 1 149.00000 418.400000
11792 2382 23934 1 149.00000 418.400000
11792 2383 14037 1 149.00000 418.400000
11792 2384 15912 1 149.00000 418.400000
11792 2385 12800 1 149.00000 418.400000
11793 2386 14610 1 149.00000 418.400000
11793 2387 13847 1 149.00000 418.400000
11793 2388 12635 1 149.00000 418.400000
11793 2389 16188 1 149.00000 418.400000
11794 2390 15325 1 149.00000 418.400000
11794 2391 13891 1 149.00000 418.400000
11794 2392 14821 1 149.00000 418.400000
11794 2393 14554 1 149.00000 418.400000
11795 2394 12827 1 149.00000 418.400000
11795 2395 16056 1 149.00000 418.400000
11795 2396 11992 1 149.00000 418.400000
15518 2397 16056 1 149.00000 418.400000
11796 2398 15586 1 149.00000 418.400000
11796 2399 14881 1 149.00000 418.400000
11796 2400 11834 1 149.00000 418.400000
13777 2401 15586 1 149.00000 418.400000
11797 2402 15673 1 149.00000 418.400000
11797 2403 14512 1 149.00000 418.400000
11797 2404 11994 1 149.00000 418.400000
11797 2405 12506 1 149.00000 418.400000
11798 2406 16038 1 149.00000 418.400000
11798 2407 15439 1 149.00000 418.400000
11798 2408 13051 1 149.00000 418.400000
11798 2409 15650 1 149.00000 418.400000
11799 2410 13198 1 149.00000 418.400000
11799 2411 15474 1 149.00000 418.400000
11799 2412 13640 1 149.00000 418.400000
11800 2413 16137 1 149.00000 418.400000
11800 2414 14948 1 149.00000 418.400000
11800 2415 14809 1 149.00000 418.400000
11800 2416 14545 1 149.00000 418.400000
11801 2417 12730 1 149.00000 418.400000
11801 2418 15111 1 149.00000 418.400000
11801 2419 22881 1 149.00000 418.400000
11801 2420 21765 1 149.00000 418.400000
11802 2421 17813 1 149.00000 418.400000
11802 2422 13689 1 149.00000 418.400000
11802 2423 13840 1 149.00000 418.400000
11802 2424 15216 1 149.00000 418.400000
11803 2425 14281 1 149.00000 418.400000
11803 2426 12479 1 149.00000 418.400000
11803 2427 15282 1 149.00000 418.400000
11803 2428 11870 1 149.00000 418.400000
18993 2429 19653 1 149.00000 418.400000
15697 2430 19653 1 149.00000 418.400000
16245 2431 19665 1 149.00000 418.400000
11308 2432 22665 1 149.00000 418.400000
19665 2433 22665 1 149.00000 418.400000
11804 2434 14244 1 149.00000 418.400000
11804 2435 15914 1 149.00000 418.400000
11804 2436 12122 1 149.00000 418.400000
11804 2437 15848 1 149.00000 418.400000
11805 2438 14020 1 149.00000 418.400000
11805 2439 14895 1 149.00000 418.400000
11805 2440 14580 1 149.00000 418.400000
11805 2441 13626 1 149.00000 418.400000
11274 2442 11806 1 149.00000 418.400000
11806 2443 21249 1 149.00000 418.400000
11806 2444 12996 1 149.00000 418.400000
11806 2445 13779 1 149.00000 418.400000
11807 2446 12108 1 149.00000 418.400000
11807 2447 12469 1 149.00000 418.400000
11807 2448 14209 1 149.00000 418.400000
11807 2449 13579 1 149.00000 418.400000
14364 2450 19677 1 149.00000 418.400000
19677 2451 21729 1 149.00000 418.400000
19677 2452 24528 1 149.00000 418.400000
11808 2453 12270 1 149.00000 418.400000
11808 2454 12394 1 149.00000 418.400000
11808 2455 23913 1 149.00000 418.400000
15786 2456 19689 1 149.00000 418.400000
15847 2457 19689 1 149.00000 418.400000
11809 2458 14397 1 149.00000 418.400000
11809 2459 14937 1 149.00000 418.400000
11809 2460 12075 1 149.00000 418.400000
11809 2461 15903 1 149.00000 418.400000
15902 2462 19701 1 149.00000 418.400000
12281 2463 19701 1 149.00000 418.400000
11810 2464 13273 1 149.00000 418.400000
11810 2465 13589 1 149.00000 418.400000
11810 2466 16054 1 149.00000 418.400000
11810 2467 13365 1 149.00000 418.400000
11811 2468 11825 1 149.00000 418.400000
11811 2469 23946 1 149.00000 418.400000
11811 2470 13147 1 149.00000 418.400000
11811 2471 14641 1 149.00000 418.400000
11812 2472 14914 1 149.00000 418.400000
11812 2473 14154 1 149.00000 418.400000
11812 2474 14838 1 149.00000 418.400000
11812 2475 12677 1 149.00000 418.400000
11813 2476 15289 1 149.00000 418.400000
11813 2477 16064 1 149.00000 418.400000
11813 2478 15080 1 149.00000 418.400000
12173 2479 16064 1 149.00000 418.400000
11814 2480 12754 1 149.00000 418.400000
11814 2481 15864 1 149.00000 418.400000
11814 2482 12446 1 149.00000 418.400000
12356 2483 19713 1 149.00000 418.400000
13618 2484 19713 1 149.00000 418.400000
14313 2485 19713 1 149.00000 418.400000
11815 2486 15199 1 149.00000 418.400000
11815 2487 12359 1 149.00000 418.400000
11815 2488 11950 1 149.00000 418.400000
11815 2489 14080 1 149.00000 418.400000
23886 2490 24345 1 149.00000 418.400000
14719 2491 15408 1 149.00000 418.400000
14719 2492 23886 1 149.00000 418.400000
19725 2493 24324 1 149.00000 418.400000
17029 2494 19725 1 149.00000 418.400000
19725 2495 22269 1 149.00000 418.400000
11816 2496 11850 1 149.00000 418.400000
11816 2497 12429 1 149.00000 418.400000
11816 2498 17603 1 149.00000 418.400000
11816 2499 23991 1 149.00000 418.400000
19737 2500 24498 1 149.00000 418.400000
13357 2501 19737 1 149.00000 418.400000
11817 2502 14585 1 149.00000 418.400000
11817 2503 14138 1 149.00000 418.400000
11817 2504 11954 1 149.00000 418.400000
14085 2505 19749 1 149.00000 418.400000
19749 2506 19881 1 149.00000 418.400000
14085 2507 15419 1 149.00000 418.400000
11818 2508 14237 1 149.00000 418.400000
11818 2509 15281 1 149.00000 418.400000
11818 2510 13141 1 149.00000 418.400000
11818 2511 15983 1 149.00000 418.400000
11819 2512 13799 1 149.00000 418.400000
11819 2513 12067 1 149.00000 418.400000
11819 2514 12620 1 149.00000 418.400000
11819 2515 12994 1 149.00000 418.400000
11820 2516 15360 1 149.00000 418.400000
11820 2517 20997 1 149.00000 418.400000
11820 2518 15669 1 149.00000 418.400000
11820 2519 15576 1 149.00000 418.400000
11821 2520 15985 1 149.00000 418.400000
11821 2521 13716 1 149.00000 418.400000
11821 2522 15822 1 149.00000 418.400000
11821 2523 15493 1 149.00000 418.400000
11822 2524 12155 1 149.00000 418.400000
11822 2525 14072 1 149.00000 418.400000
11822 2526 12213 1 149.00000 418.400000
11822 2527 12641 1 149.00000 418.400000
11823 2528 14844 1 149.00000 418.400000
11823 2529 12338 1 149.00000 418.400000
11823 2530 13806 1 149.00000 418.400000
11823 2531 12232 1 149.00000 418.400000
11824 2532 14803 1 149.00000 418.400000
11824 2533 14202 1 149.00000 418.400000
11824 2534 13960 1 149.00000 418.400000
11824 2535 14791 1 149.00000 418.400000
11825 2536 15655 1 149.00000 418.400000
11825 2537 15322 1 149.00000 418.400000
11825 2538 16021 1 149.00000 418.400000
11826 2539 15740 1 149.00000 418.400000
11826 2540 16525 1 149.00000 418.400000
11826 2541 13343 1 149.00000 418.400000
11827 2542 12403 1 149.00000 418.400000
11827 2543 14972 1 149.00000 418.400000
11827 2544 15046 1 149.00000 418.400000
11828 2545 14101 1 149.00000 418.400000
11828 2546 15500 1 149.00000 418.400000
11828 2547 13331 1 149.00000 418.400000
11828 2548 15378 1 149.00000 418.400000
11829 2549 14492 1 149.00000 418.400000
11829 2550 11914 1 149.00000 418.400000
11829 2551 13179 1 149.00000 418.400000
11829 2552 14725 1 149.00000 418.400000
11830 2553 13065 1 149.00000 418.400000
11830 2554 13114 1 149.00000 418.400000
11830 2555 14662 1 149.00000 418.400000
11830 2556 16124 1 149.00000 418.400000
15971 2557 22077 1 149.00000 418.400000
15298 2558 19761 1 149.00000 418.400000
19761 2559 19869 1 149.00000 418.400000
19761 2560 22077 1 149.00000 418.400000
11831 2561 12414 1 149.00000 418.400000
11831 2562 13334 1 149.00000 418.400000
11831 2563 13017 1 149.00000 418.400000
11832 2564 15803 1 149.00000 418.400000
11832 2565 12439 1 149.00000 418.400000
11832 2566 14590 1 149.00000 418.400000
11833 2567 13270 1 149.00000 418.400000
11833 2568 24201 1 149.00000 418.400000
11833 2569 24294 1 149.00000 418.400000
11833 2570 14272 1 149.00000 418.400000
11834 2571 15283 1 149.00000 418.400000
11834 2572 12154 1 149.00000 418.400000
12154 2573 14744 1 149.00000 418.400000
11403 2574 11835 1 149.00000 418.400000
11835 2575 13101 1 149.00000 418.400000
11835 2576 13503 1 149.00000 418.400000
11835 2577 12681 1 149.00000 418.400000
11836 2578 14861 1 149.00000 418.400000
11836 2579 13983 1 149.00000 418.400000
11836 2580 13360 1 149.00000 418.400000
13585 2581 19773 1 149.00000 418.400000
14735 2582 19773 1 149.00000 418.400000
11868 2583 14931 1 149.00000 418.400000
11837 2584 20325 1 149.00000 418.400000
11837 2585 14931 1 149.00000 418.400000
11837 2586 12806 1 149.00000 418.400000
19785 2587 23049 1 149.00000 418.400000
15128 2588 19785 1 149.00000 418.400000
11838 2589 13328 1 149.00000 418.400000
11838 2590 12280 1 149.00000 418.400000
11838 2591 17813 1 149.00000 418.400000
11839 2592 12566 1 149.00000 418.400000
11839 2593 14162 1 149.00000 418.400000
11839 2594 12431 1 149.00000 418.400000
11840 2595 16092 1 149.00000 418.400000
11840 2596 14447 1 149.00000 418.400000
11840 2597 11959 1 149.00000 418.400000
11841 2598 16105 1 149.00000 418.400000
11841 2599 15675 1 149.00000 418.400000
11841 2600 13101 1 149.00000 418.400000
11841 2601 12524 1 149.00000 418.400000
11842 2602 15597 1 149.00000 418.400000
11842 2603 14464 1 149.00000 418.400000
11843 2604 19917 1 149.00000 418.400000
17211 2605 19917 1 149.00000 418.400000
11844 2606 16154 1 149.00000 418.400000
14472 2607 16154 1 149.00000 418.400000
11844 2608 16072 1 149.00000 418.400000
11844 2609 15345 1 149.00000 418.400000
11845 2610 15875 1 149.00000 418.400000
11845 2611 12769 1 149.00000 418.400000
11845 2612 13576 1 149.00000 418.400000
11846 2613 12421 1 149.00000 418.400000
11846 2614 12384 1 149.00000 418.400000
11846 2615 12940 1 149.00000 418.400000
11847 2616 12901 1 149.00000 418.400000
11847 2617 13152 1 149.00000 418.400000
11847 2618 14192 1 149.00000 418.400000
11848 2619 16029 1 149.00000 418.400000
11848 2620 21957 1 149.00000 418.400000
11848 2621 15720 1 149.00000 418.400000
11848 2622 13876 1 149.00000 418.400000
11931 2623 19797 1 149.00000 418.400000
17869 2624 19797 1 149.00000 418.400000
12658 2625 13069 1 149.00000 418.400000
11849 2626 14881 1 149.00000 418.400000
11849 2627 13069 1 149.00000 418.400000
11849 2628 13034 1 149.00000 418.400000
11850 2629 15546 1 149.00000 418.400000
11850 2630 14856 1 149.00000 418.400000
11850 2631 12837 1 149.00000 418.400000
11851 2632 15588 1 149.00000 418.400000
11851 2633 21045 1 149.00000 418.400000
11851 2634 16066 1 149.00000 418.400000
11851 2635 15350 1 149.00000 418.400000
11852 2636 15418 1 149.00000 418.400000
11852 2637 13138 1 149.00000 418.400000
11852 2638 14972 1 149.00000 418.400000
11852 2639 15606 1 149.00000 418.400000
11853 2640 13091 1 149.00000 418.400000
11853 2641 15409 1 149.00000 418.400000
11853 2642 13514 1 149.00000 418.400000
11853 2643 13052 1 149.00000 418.400000
11854 2644 16199 1 149.00000 418.400000
11854 2645 13131 1 149.00000 418.400000
11854 2646 12448 1 149.00000 418.400000
11855 2647 13169 1 149.00000 418.400000
11855 2648 16011 1 149.00000 418.400000
15374 2649 16011 1 149.00000 418.400000
11855 2650 13992 1 149.00000 418.400000
19809 2651 22629 1 149.00000 418.400000
19809 2652 24612 1 149.00000 418.400000
16148 2653 19809 1 149.00000 418.400000
11856 2654 13287 1 149.00000 418.400000
11856 2655 13881 1 149.00000 418.400000
11856 2656 14512 1 149.00000 418.400000
11856 2657 16101 1 149.00000 418.400000
11857 2658 14570 1 149.00000 418.400000
11857 2659 11983 1 149.00000 418.400000
11858 2660 13156 1 149.00000 418.400000
11858 2661 13127 1 149.00000 418.400000
11858 2662 13417 1 149.00000 418.400000
11858 2663 16195 1 149.00000 418.400000
11859 2664 14172 1 149.00000 418.400000
11859 2665 13602 1 149.00000 418.400000
11860 2666 14003 1 149.00000 418.400000
11860 2667 24084 1 149.00000 418.400000
11861 2668 14237 1 149.00000 418.400000
11861 2669 14153 1 149.00000 418.400000
11861 2670 12649 1 149.00000 418.400000
11861 2671 12070 1 149.00000 418.400000
11862 2672 12986 1 149.00000 418.400000
11862 2673 13154 1 149.00000 418.400000
11862 2674 13889 1 149.00000 418.400000
11862 2675 11971 1 149.00000 418.400000
11863 2676 12480 1 149.00000 418.400000
11863 2677 14754 1 149.00000 418.400000
11863 2678 15892 1 149.00000 418.400000
11863 2679 13676 1 149.00000 418.400000
11864 2680 13171 1 149.00000 418.400000
11864 2681 13250 1 149.00000 418.400000
11864 2682 15405 1 149.00000 418.400000
14377 2683 15405 1 149.00000 418.400000
11865 2684 20505 1 149.00000 418.400000
11865 2685 12423 1 149.00000 418.400000
11865 2686 12979 1 149.00000 418.400000
11865 2687 15780 1 149.00000 418.400000
11866 2688 15372 1 149.00000 418.400000
11866 2689 15404 1 149.00000 418.400000
11866 2690 22629 1 149.00000 418.400000
11866 2691 13627 1 149.00000 418.400000
11867 2692 15001 1 149.00000 418.400000
11867 2693 13963 1 149.00000 418.400000
11867 2694 15934 1 149.00000 418.400000
11867 2695 12632 1 149.00000 418.400000
13009 2696 19821 1 149.00000 418.400000
12145 2697 19821 1 149.00000 418.400000
14615 2698 19821 1 149.00000 418.400000
11868 2699 24228 1 149.00000 418.400000
11868 2700 24048 1 149.00000 418.400000
11868 2701 13308 1 149.00000 418.400000
11869 2702 15371 1 149.00000 418.400000
11869 2703 14029 1 149.00000 418.400000
11869 2704 13289 1 149.00000 418.400000
11869 2705 13984 1 149.00000 418.400000
11870 2706 13012 1 149.00000 418.400000
11870 2707 12021 1 149.00000 418.400000
11870 2708 15847 1 149.00000 418.400000
11871 2709 12988 1 149.00000 418.400000
11871 2710 15961 1 149.00000 418.400000
11871 2711 15991 1 149.00000 418.400000
11871 2712 12875 1 149.00000 418.400000
11872 2713 13545 1 149.00000 418.400000
11872 2714 13310 1 149.00000 418.400000
11872 2715 12248 1 149.00000 418.400000
11872 2716 21597 1 149.00000 418.400000
11873 2717 16100 1 149.00000 418.400000
11873 2718 14354 1 149.00000 418.400000
11873 2719 12924 1 149.00000 418.400000
11873 2720 14619 1 149.00000 418.400000
11874 2721 16205 1 149.00000 418.400000
11874 2722 14223 1 149.00000 418.400000
11874 2723 12177 1 149.00000 418.400000
11874 2724 15732 1 149.00000 418.400000
11875 2725 16134 1 149.00000 418.400000
11875 2726 13400 1 149.00000 418.400000
11875 2727 14969 1 149.00000 418.400000
11875 2728 13146 1 149.00000 418.400000
15257 2729 19833 1 149.00000 418.400000
19833 2730 22113 1 149.00000 418.400000
19833 2731 22161 1 149.00000 418.400000
11876 2732 20841 1 149.00000 418.400000
11876 2733 17113 1 149.00000 418.400000
11876 2734 14333 1 149.00000 418.400000
11877 2735 12917 1 149.00000 418.400000
11877 2736 13285 1 149.00000 418.400000
11877 2737 15624 1 149.00000 418.400000
11878 2738 12079 1 149.00000 418.400000
11878 2739 13395 1 149.00000 418.400000
11878 2740 14530 1 149.00000 418.400000
11878 2741 14496 1 149.00000 418.400000
11879 2742 15699 1 149.00000 418.400000
11879 2743 16165 1 149.00000 418.400000
11879 2744 15360 1 149.00000 418.400000
11879 2745 12414 1 149.00000 418.400000
11880 2746 22713 1 149.00000 418.400000
11880 2747 24072 1 149.00000 418.400000
11880 2748 16151 1 149.00000 418.400000
11881 2749 12790 1 149.00000 418.400000
11881 2750 14124 1 149.00000 418.400000
11881 2751 15417 1 149.00000 418.400000
11881 2752 12473 1 149.00000 418.400000
11882 2753 13831 1 149.00000 418.400000
14318 2754 15342 1 149.00000 418.400000
11882 2755 14363 1 149.00000 418.400000
11882 2756 14318 1 149.00000 418.400000
11883 2757 12264 1 149.00000 418.400000
11883 2758 12882 1 149.00000 418.400000
11883 2759 13373 1 149.00000 418.400000
11883 2760 13150 1 149.00000 418.400000
11884 2761 14907 1 149.00000 418.400000
11884 2762 14297 1 149.00000 418.400000
11884 2763 13913 1 149.00000 418.400000
11885 2764 12604 1 149.00000 418.400000
11885 2765 15133 1 149.00000 418.400000
11885 2766 13759 1 149.00000 418.400000
11885 2767 14204 1 149.00000 418.400000
11886 2768 15552 1 149.00000 418.400000
11886 2769 15479 1 149.00000 418.400000
11886 2770 11928 1 149.00000 418.400000
11887 2771 16143 1 149.00000 418.400000
13437 2772 13894 1 149.00000 418.400000
11887 2773 13437 1 149.00000 418.400000
11887 2774 14686 1 149.00000 418.400000
14675 2775 19845 1 149.00000 418.400000
15186 2776 19845 1 149.00000 418.400000
11888 2777 15182 1 149.00000 418.400000
11888 2778 12341 1 149.00000 418.400000
11888 2779 15369 1 149.00000 418.400000
11889 2780 24734 1 149.00000 418.400000
11889 2781 13109 1 149.00000 418.400000
11889 2782 14119 1 149.00000 418.400000
11889 2783 14211 1 149.00000 418.400000
11890 2784 15310 1 149.00000 418.400000
11890 2785 13987 1 149.00000 418.400000
11890 2786 13908 1 149.00000 418.400000
11890 2787 13031 1 149.00000 418.400000
11891 2788 13700 1 149.00000 418.400000
11891 2789 12593 1 149.00000 418.400000
11891 2790 15471 1 149.00000 418.400000
11892 2791 12458 1 149.00000 418.400000
11892 2792 13746 1 149.00000 418.400000
12458 2793 12761 1 149.00000 418.400000
11893 2794 16207 1 149.00000 418.400000
11893 2795 15159 1 149.00000 418.400000
11893 2796 14633 1 149.00000 418.400000
13717 2797 15159 1 149.00000 418.400000
11894 2798 15834 1 149.00000 418.400000
11894 2799 15471 1 149.00000 418.400000
11895 2800 14000 1 149.00000 418.400000
11895 2801 14681 1 149.00000 418.400000
12744 2802 14000 1 149.00000 418.400000
11896 2803 14222 1 149.00000 418.400000
11896 2804 14513 1 149.00000 418.400000
11896 2805 14192 1 149.00000 418.400000
11897 2806 12546 1 149.00000 418.400000
11897 2807 13958 1 149.00000 418.400000
11897 2808 15390 1 149.00000 418.400000
11897 2809 12848 1 149.00000 418.400000
11898 2810 13844 1 149.00000 418.400000
11898 2811 14036 1 149.00000 418.400000
11898 2812 15137 1 149.00000 418.400000
11898 2813 14724 1 149.00000 418.400000
11899 2814 14552 1 149.00000 418.400000
13535 2815 13594 1 149.00000 418.400000
11899 2816 15562 1 149.00000 418.400000
11323 2817 13535 1 149.00000 418.400000
11900 2818 12158 1 149.00000 418.400000
11900 2819 13674 1 149.00000 418.400000
11900 2820 15695 1 149.00000 418.400000
11900 2821 13335 1 149.00000 418.400000
11901 2822 15551 1 149.00000 418.400000
11901 2823 16193 1 149.00000 418.400000
11901 2824 15766 1 149.00000 418.400000
11902 2825 15277 1 149.00000 418.400000
11902 2826 16103 1 149.00000 418.400000
11902 2827 14076 1 149.00000 418.400000
11902 2828 16067 1 149.00000 418.400000
11903 2829 15890 1 149.00000 418.400000
11903 2830 15723 1 149.00000 418.400000
11903 2831 13702 1 149.00000 418.400000
11904 2832 12067 1 149.00000 418.400000
11904 2833 12426 1 149.00000 418.400000
11905 2834 11930 1 149.00000 418.400000
11905 2835 14324 1 149.00000 418.400000
11905 2836 12316 1 149.00000 418.400000
11906 2837 15104 1 149.00000 418.400000
11906 2838 15252 1 149.00000 418.400000
11906 2839 18079 1 149.00000 418.400000
11907 2840 12763 1 149.00000 418.400000
11907 2841 14393 1 149.00000 418.400000
11907 2842 12753 1 149.00000 418.400000
11907 2843 12394 1 149.00000 418.400000
11908 2844 13881 1 149.00000 418.400000
11908 2845 12123 1 149.00000 418.400000
11908 2846 14336 1 149.00000 418.400000
11908 2847 13262 1 149.00000 418.400000
11909 2848 13625 1 149.00000 418.400000
11909 2849 14891 1 149.00000 418.400000
11909 2850 12097 1 149.00000 418.400000
11910 2851 12622 1 149.00000 418.400000
11910 2852 12562 1 149.00000 418.400000
11910 2853 13848 1 149.00000 418.400000
11911 2854 15573 1 149.00000 418.400000
11911 2855 13577 1 149.00000 418.400000
11911 2856 13851 1 149.00000 418.400000
12133 2857 19857 1 149.00000 418.400000
11912 2858 13428 1 149.00000 418.400000
11912 2859 13205 1 149.00000 418.400000
11912 2860 15011 1 149.00000 418.400000
13428 2861 14900 1 149.00000 418.400000
11913 2862 13394 1 149.00000 418.400000
11913 2863 15988 1 149.00000 418.400000
11914 2864 12396 1 149.00000 418.400000
11914 2865 12470 1 149.00000 418.400000
12470 2866 15193 1 149.00000 418.400000
11915 2867 14914 1 149.00000 418.400000
11915 2868 15915 1 149.00000 418.400000
11915 2869 14090 1 149.00000 418.400000
11915 2870 13190 1 149.00000 418.400000
11916 2871 15429 1 149.00000 418.400000
11916 2872 12670 1 149.00000 418.400000
11916 2873 13948 1 149.00000 418.400000
11917 2874 13872 1 149.00000 418.400000
11917 2875 13397 1 149.00000 418.400000
11917 2876 13990 1 149.00000 418.400000
11918 2877 13556 1 149.00000 418.400000
11918 2878 11980 1 149.00000 418.400000
11918 2879 12371 1 149.00000 418.400000
11919 2880 12007 1 149.00000 418.400000
11919 2881 14079 1 149.00000 418.400000
11919 2882 12714 1 149.00000 418.400000
11919 2883 12517 1 149.00000 418.400000
19869 2884 24303 1 149.00000 418.400000
13231 2885 19869 1 149.00000 418.400000
11920 2886 15251 1 149.00000 418.400000
11920 2887 16169 1 149.00000 418.400000
11920 2888 13661 1 149.00000 418.400000
11921 2889 14239 1 149.00000 418.400000
11921 2890 24054 1 149.00000 418.400000
11921 2891 14437 1 149.00000 418.400000
11922 2892 12963 1 149.00000 418.400000
11922 2893 24699 1 149.00000 418.400000
12202 2894 14294 1 149.00000 418.400000
11922 2895 14294 1 149.00000 418.400000
11923 2896 12857 1 149.00000 418.400000
11923 2897 12890 1 149.00000 418.400000
11923 2898 14657 1 149.00000 418.400000
11923 2899 22893 1 149.00000 418.400000
11924 2900 14713 1 149.00000 418.400000
11924 2901 13250 1 149.00000 418.400000
11924 2902 14548 1 149.00000 418.400000
11925 2903 12817 1 149.00000 418.400000
11925 2904 15719 1 149.00000 418.400000
11925 2905 15310 1 149.00000 418.400000
11926 2906 13517 1 149.00000 418.400000
13149 2907 15776 1 149.00000 418.400000
11926 2908 15776 1 149.00000 418.400000
11927 2909 14792 1 149.00000 418.400000
11927 2910 14102 1 149.00000 418.400000
11927 2911 14112 1 149.00000 418.400000
11928 2912 14751 1 149.00000 418.400000
11928 2913 14615 1 149.00000 418.400000
11928 2914 24754 1 149.00000 418.400000
11929 2915 15768 1 149.00000 418.400000
11929 2916 15321 1 149.00000 418.400000
11929 2917 12388 1 149.00000 418.400000
11930 2918 14733 1 149.00000 418.400000
11930 2919 12045 1 149.00000 418.400000
11930 2920 16170 1 149.00000 418.400000
19881 2921 24498 1 149.00000 418.400000
14356 2922 19881 1 149.00000 418.400000
11932 2923 16197 1 149.00000 418.400000
11932 2924 15284 1 149.00000 418.400000
11932 2925 15998 1 149.00000 418.400000
11932 2926 15690 1 149.00000 418.400000
11933 2927 15452 1 149.00000 418.400000
11933 2928 15971 1 149.00000 418.400000
11933 2929 15791 1 149.00000 418.400000
11933 2930 15235 1 149.00000 418.400000
11934 2931 13845 1 149.00000 418.400000
11934 2932 12743 1 149.00000 418.400000
11934 2933 13395 1 149.00000 418.400000
11935 2934 16027 1 149.00000 418.400000
11935 2935 11983 1 149.00000 418.400000
11935 2936 13877 1 149.00000 418.400000
11936 2937 12555 1 149.00000 418.400000
11936 2938 14698 1 149.00000 418.400000
11936 2939 14676 1 149.00000 418.400000
11937 2940 16034 1 149.00000 418.400000
11937 2941 12246 1 149.00000 418.400000
11464 2942 11937 1 149.00000 418.400000
12246 2943 13852 1 149.00000 418.400000
13653 2944 19893 1 149.00000 418.400000
14476 2945 19893 1 149.00000 418.400000
15697 2946 19893 1 149.00000 418.400000
11938 2947 15209 1 149.00000 418.400000
11938 2948 13071 1 149.00000 418.400000
11938 2949 15361 1 149.00000 418.400000
11938 2950 15933 1 149.00000 418.400000
15999 2951 16086 1 149.00000 418.400000
15999 2952 22389 1 149.00000 418.400000
11939 2953 15999 1 149.00000 418.400000
13985 2954 15999 1 149.00000 418.400000
11940 2955 14668 1 149.00000 418.400000
11940 2956 15901 1 149.00000 418.400000
11940 2957 13623 1 149.00000 418.400000
11941 2958 14896 1 149.00000 418.400000
11941 2959 15262 1 149.00000 418.400000
11941 2960 14321 1 149.00000 418.400000
11941 2961 15543 1 149.00000 418.400000
11942 2962 13003 1 149.00000 418.400000
11942 2963 24510 1 149.00000 418.400000
11942 2964 12896 1 149.00000 418.400000
11942 2965 24249 1 149.00000 418.400000
11943 2966 13431 1 149.00000 418.400000
11943 2967 12931 1 149.00000 418.400000
11943 2968 14256 1 149.00000 418.400000
11943 2969 15469 1 149.00000 418.400000
11944 2970 15385 1 149.00000 418.400000
11944 2971 12455 1 149.00000 418.400000
12162 2972 12455 1 149.00000 418.400000
11944 2973 13765 1 149.00000 418.400000
11945 2974 12175 1 149.00000 418.400000
11945 2975 13047 1 149.00000 418.400000
11945 2976 13412 1 149.00000 418.400000
11945 2977 14110 1 149.00000 418.400000
11946 2978 14163 1 149.00000 418.400000
11946 2979 12832 1 149.00000 418.400000
11946 2980 16063 1 149.00000 418.400000
11946 2981 16002 1 149.00000 418.400000
11947 2982 13569 1 149.00000 418.400000
11947 2983 12862 1 149.00000 418.400000
11947 2984 13092 1 149.00000 418.400000
11947 2985 12557 1 149.00000 418.400000
17575 2986 19905 1 149.00000 418.400000
14694 2987 19905 1 149.00000 418.400000
19905 2988 23949 1 149.00000 418.400000
11843 2989 16090 1 149.00000 418.400000
11843 2990 17981 1 149.00000 418.400000
14260 2991 19917 1 149.00000 418.400000
14841 2992 15363 1 149.00000 418.400000
12204 2993 15363 1 149.00000 418.400000
12559 2994 15363 1 149.00000 418.400000
15363 2995 19929 1 149.00000 418.400000
11948 2996 24186 1 149.00000 418.400000
11948 2997 12540 1 149.00000 418.400000
11949 2998 14617 1 149.00000 418.400000
11949 2999 16097 1 149.00000 418.400000
11949 3000 14838 1 149.00000 418.400000
11949 3001 12451 1 149.00000 418.400000
11950 3002 12103 1 149.00000 418.400000
11950 3003 14482 1 149.00000 418.400000
11951 3004 13570 1 149.00000 418.400000
11951 3005 12775 1 149.00000 418.400000
11951 3006 13910 1 149.00000 418.400000
11952 3007 15835 1 149.00000 418.400000
13438 3008 13612 1 149.00000 418.400000
11952 3009 14150 1 149.00000 418.400000
11952 3010 13612 1 149.00000 418.400000
11953 3011 16198 1 149.00000 418.400000
11953 3012 13115 1 149.00000 418.400000
11953 3013 24809 1 149.00000 418.400000
11953 3014 15548 1 149.00000 418.400000
11954 3015 12473 1 149.00000 418.400000
11954 3016 16123 1 149.00000 418.400000
11954 3017 14028 1 149.00000 418.400000
11955 3018 14105 1 149.00000 418.400000
11955 3019 14624 1 149.00000 418.400000
11955 3020 13936 1 149.00000 418.400000
11955 3021 15687 1 149.00000 418.400000
11956 3022 13838 1 149.00000 418.400000
11956 3023 12064 1 149.00000 418.400000
11956 3024 14975 1 149.00000 418.400000
11957 3025 13631 1 149.00000 418.400000
11957 3026 12239 1 149.00000 418.400000
11957 3027 16005 1 149.00000 418.400000
11957 3028 13624 1 149.00000 418.400000
11958 3029 15466 1 149.00000 418.400000
11958 3030 15219 1 149.00000 418.400000
11958 3031 12387 1 149.00000 418.400000
11958 3032 12126 1 149.00000 418.400000
15622 3033 19965 1 149.00000 418.400000
19965 3034 21393 1 149.00000 418.400000
16777 3035 19965 1 149.00000 418.400000
11959 3036 15249 1 149.00000 418.400000
11959 3037 12638 1 149.00000 418.400000
11959 3038 12047 1 149.00000 418.400000
11960 3039 18177 1 149.00000 418.400000
11960 3040 14574 1 149.00000 418.400000
11960 3041 24634 1 149.00000 418.400000
14253 3042 19977 1 149.00000 418.400000
11961 3043 15510 1 149.00000 418.400000
11961 3044 14772 1 149.00000 418.400000
11961 3045 12728 1 149.00000 418.400000
14921 3046 15510 1 149.00000 418.400000
16117 3047 19989 1 149.00000 418.400000
16155 3048 19989 1 149.00000 418.400000
11962 3049 13958 1 149.00000 418.400000
11962 3050 15389 1 149.00000 418.400000
11962 3051 12784 1 149.00000 418.400000
11962 3052 15891 1 149.00000 418.400000
11963 3053 15258 1 149.00000 418.400000
11260 3054 11963 1 149.00000 418.400000
11963 3055 14781 1 149.00000 418.400000
11613 3056 12679 1 149.00000 418.400000
11483 3057 14852 1 149.00000 418.400000
11965 3058 13998 1 149.00000 418.400000
11965 3059 15739 1 149.00000 418.400000
11965 3060 15481 1 149.00000 418.400000
11966 3061 13011 1 149.00000 418.400000
11966 3062 16024 1 149.00000 418.400000
11967 3063 12179 1 149.00000 418.400000
11967 3064 13598 1 149.00000 418.400000
11967 3065 13440 1 149.00000 418.400000
11967 3066 15928 1 149.00000 418.400000
11968 3067 13911 1 149.00000 418.400000
11968 3068 14330 1 149.00000 418.400000
11968 3069 16170 1 149.00000 418.400000
11969 3070 14179 1 149.00000 418.400000
11969 3071 24231 1 149.00000 418.400000
11969 3072 24060 1 149.00000 418.400000
11969 3073 15988 1 149.00000 418.400000
11970 3074 12759 1 149.00000 418.400000
11970 3075 15560 1 149.00000 418.400000
11970 3076 13780 1 149.00000 418.400000
11971 3077 13232 1 149.00000 418.400000
11971 3078 15787 1 149.00000 418.400000
11971 3079 15191 1 149.00000 418.400000
11972 3080 15636 1 149.00000 418.400000
11972 3081 16064 1 149.00000 418.400000
11973 3082 15799 1 149.00000 418.400000
11973 3083 15893 1 149.00000 418.400000
13244 3084 14482 1 149.00000 418.400000
11974 3085 15631 1 149.00000 418.400000
11974 3086 13244 1 149.00000 418.400000
11975 3087 13370 1 149.00000 418.400000
11975 3088 12333 1 149.00000 418.400000
11975 3089 14357 1 149.00000 418.400000
11976 3090 12927 1 149.00000 418.400000
11976 3091 12710 1 149.00000 418.400000
11976 3092 13839 1 149.00000 418.400000
11976 3093 12015 1 149.00000 418.400000
11977 3094 14406 1 149.00000 418.400000
11977 3095 12561 1 149.00000 418.400000
11977 3096 14498 1 149.00000 418.400000
11978 3097 13434 1 149.00000 418.400000
11978 3098 13522 1 149.00000 418.400000
11978 3099 15425 1 149.00000 418.400000
11979 3100 15669 1 149.00000 418.400000
11979 3101 23781 1 149.00000 418.400000
11980 3102 14174 1 149.00000 418.400000
11980 3103 12713 1 149.00000 418.400000
14409 3104 20001 1 149.00000 418.400000
20001 3105 24183 1 149.00000 418.400000
20001 3106 22725 1 149.00000 418.400000
15029 3107 15840 1 149.00000 418.400000
12304 3108 15029 1 149.00000 418.400000
20013 3109 20061 1 149.00000 418.400000
11981 3110 15974 1 149.00000 418.400000
11981 3111 13205 1 149.00000 418.400000
11981 3112 13950 1 149.00000 418.400000
11982 3113 13870 1 149.00000 418.400000
11982 3114 16093 1 149.00000 418.400000
11982 3115 12652 1 149.00000 418.400000
11982 3116 16016 1 149.00000 418.400000
11983 3117 12926 1 149.00000 418.400000
11983 3118 13873 1 149.00000 418.400000
20025 3119 23940 1 149.00000 418.400000
14494 3120 20025 1 149.00000 418.400000
15031 3121 20025 1 149.00000 418.400000
11984 3122 14470 1 149.00000 418.400000
11984 3123 14602 1 149.00000 418.400000
11984 3124 14950 1 149.00000 418.400000
11984 3125 15048 1 149.00000 418.400000
11985 3126 14264 1 149.00000 418.400000
11985 3127 15291 1 149.00000 418.400000
11985 3128 16029 1 149.00000 418.400000
11985 3129 16109 1 149.00000 418.400000
11986 3130 14182 1 149.00000 418.400000
11986 3131 13296 1 149.00000 418.400000
11986 3132 12064 1 149.00000 418.400000
13773 3133 24288 1 149.00000 418.400000
11987 3134 13773 1 149.00000 418.400000
13773 3135 14793 1 149.00000 418.400000
11987 3136 15205 1 149.00000 418.400000
11988 3137 15572 1 149.00000 418.400000
11988 3138 14829 1 149.00000 418.400000
11988 3139 13221 1 149.00000 418.400000
11989 3140 15769 1 149.00000 418.400000
11989 3141 15006 1 149.00000 418.400000
11989 3142 12851 1 149.00000 418.400000
11989 3143 13637 1 149.00000 418.400000
11990 3144 13781 1 149.00000 418.400000
11990 3145 14493 1 149.00000 418.400000
11990 3146 13088 1 149.00000 418.400000
15286 3147 20037 1 149.00000 418.400000
20049 3148 22653 1 149.00000 418.400000
15480 3149 20049 1 149.00000 418.400000
11991 3150 13623 1 149.00000 418.400000
11991 3151 13079 1 149.00000 418.400000
11991 3152 12037 1 149.00000 418.400000
11991 3153 12779 1 149.00000 418.400000
11992 3154 15263 1 149.00000 418.400000
11992 3155 15729 1 149.00000 418.400000
11992 3156 13001 1 149.00000 418.400000
11993 3157 13588 1 149.00000 418.400000
11993 3158 15430 1 149.00000 418.400000
11993 3159 15743 1 149.00000 418.400000
11993 3160 14715 1 149.00000 418.400000
16168 3161 20061 1 149.00000 418.400000
11994 3162 15975 1 149.00000 418.400000
11994 3163 14671 1 149.00000 418.400000
11994 3164 12313 1 149.00000 418.400000
11995 3165 13546 1 149.00000 418.400000
11995 3166 13515 1 149.00000 418.400000
11995 3167 12031 1 149.00000 418.400000
11995 3168 12266 1 149.00000 418.400000
11996 3169 14435 1 149.00000 418.400000
11996 3170 14630 1 149.00000 418.400000
11996 3171 12739 1 149.00000 418.400000
11996 3172 12748 1 149.00000 418.400000
11997 3173 13394 1 149.00000 418.400000
11997 3174 13996 1 149.00000 418.400000
11997 3175 12729 1 149.00000 418.400000
11997 3176 12666 1 149.00000 418.400000
11998 3177 13224 1 149.00000 418.400000
11998 3178 14581 1 149.00000 418.400000
11998 3179 13582 1 149.00000 418.400000
11998 3180 12552 1 149.00000 418.400000
11999 3181 13118 1 149.00000 418.400000
11999 3182 13299 1 149.00000 418.400000
11999 3183 15081 1 149.00000 418.400000
17617 3184 18345 1 149.00000 418.400000
12000 3185 15885 1 149.00000 418.400000
12000 3186 12684 1 149.00000 418.400000
12000 3187 14115 1 149.00000 418.400000
14357 3188 20073 1 149.00000 418.400000
16763 3189 20073 1 149.00000 418.400000
12001 3190 14004 1 149.00000 418.400000
12001 3191 13499 1 149.00000 418.400000
12001 3192 15531 1 149.00000 418.400000
12001 3193 12245 1 149.00000 418.400000
12002 3194 15789 1 149.00000 418.400000
12002 3195 24534 1 149.00000 418.400000
12168 3196 15789 1 149.00000 418.400000
12002 3197 13700 1 149.00000 418.400000
12003 3198 16010 1 149.00000 418.400000
12003 3199 13107 1 149.00000 418.400000
12003 3200 13280 1 149.00000 418.400000
12003 3201 16207 1 149.00000 418.400000
12004 3202 13549 1 149.00000 418.400000
12004 3203 13221 1 149.00000 418.400000
12004 3204 14616 1 149.00000 418.400000
12004 3205 14068 1 149.00000 418.400000
12005 3206 15562 1 149.00000 418.400000
12005 3207 24450 1 149.00000 418.400000
12005 3208 13831 1 149.00000 418.400000
12006 3209 14801 1 149.00000 418.400000
12006 3210 13930 1 149.00000 418.400000
12006 3211 15424 1 149.00000 418.400000
12006 3212 14817 1 149.00000 418.400000
12007 3213 12057 1 149.00000 418.400000
12086 3214 14608 1 149.00000 418.400000
12007 3215 12086 1 149.00000 418.400000
12008 3216 12786 1 149.00000 418.400000
12008 3217 12021 1 149.00000 418.400000
12008 3218 14281 1 149.00000 418.400000
12009 3219 20733 1 149.00000 418.400000
12009 3220 23793 1 149.00000 418.400000
12009 3221 24477 1 149.00000 418.400000
12009 3222 12021 1 149.00000 418.400000
20085 3223 23661 1 149.00000 418.400000
15591 3224 20085 1 149.00000 418.400000
12010 3225 15883 1 149.00000 418.400000
12010 3226 13842 1 149.00000 418.400000
12010 3227 12946 1 149.00000 418.400000
12010 3228 13274 1 149.00000 418.400000
12011 3229 15113 1 149.00000 418.400000
12011 3230 13308 1 149.00000 418.400000
12011 3231 12379 1 149.00000 418.400000
12011 3232 12273 1 149.00000 418.400000
12012 3233 12787 1 149.00000 418.400000
11545 3234 12283 1 149.00000 418.400000
11545 3235 13617 1 149.00000 418.400000
12013 3236 12876 1 149.00000 418.400000
12013 3237 14822 1 149.00000 418.400000
12013 3238 16211 1 149.00000 418.400000
12013 3239 12950 1 149.00000 418.400000
12014 3240 13608 1 149.00000 418.400000
12014 3241 14702 1 149.00000 418.400000
12014 3242 15609 1 149.00000 418.400000
12015 3243 15212 1 149.00000 418.400000
12015 3244 13194 1 149.00000 418.400000
12015 3245 12637 1 149.00000 418.400000
12016 3246 12748 1 149.00000 418.400000
12016 3247 13370 1 149.00000 418.400000
12016 3248 20073 1 149.00000 418.400000
12016 3249 12209 1 149.00000 418.400000
12017 3250 12193 1 149.00000 418.400000
12017 3251 13956 1 149.00000 418.400000
12017 3252 13558 1 149.00000 418.400000
12018 3253 12724 1 149.00000 418.400000
12018 3254 15383 1 149.00000 418.400000
12018 3255 12795 1 149.00000 418.400000
12019 3256 15848 1 149.00000 418.400000
12019 3257 13937 1 149.00000 418.400000
12019 3258 15142 1 149.00000 418.400000
12019 3259 12122 1 149.00000 418.400000
12020 3260 13520 1 149.00000 418.400000
12020 3261 13432 1 149.00000 418.400000
12020 3262 13308 1 149.00000 418.400000
12020 3263 13628 1 149.00000 418.400000
12021 3264 13888 1 149.00000 418.400000
12022 3265 12851 1 149.00000 418.400000
12022 3266 12370 1 149.00000 418.400000
12022 3267 12738 1 149.00000 418.400000
12022 3268 13155 1 149.00000 418.400000
12023 3269 15239 1 149.00000 418.400000
12023 3270 13352 1 149.00000 418.400000
12023 3271 12361 1 149.00000 418.400000
12023 3272 14167 1 149.00000 418.400000
12024 3273 13107 1 149.00000 418.400000
12024 3274 12131 1 149.00000 418.400000
12024 3275 16182 1 149.00000 418.400000
12024 3276 15351 1 149.00000 418.400000
12025 3277 15109 1 149.00000 418.400000
12025 3278 14616 1 149.00000 418.400000
12026 3279 12208 1 149.00000 418.400000
12026 3280 15036 1 149.00000 418.400000
12026 3281 13274 1 149.00000 418.400000
12027 3282 16106 1 149.00000 418.400000
12027 3283 16193 1 149.00000 418.400000
12280 3284 20097 1 149.00000 418.400000
20097 3285 23997 1 149.00000 418.400000
12028 3286 12907 1 149.00000 418.400000
12028 3287 15392 1 149.00000 418.400000
12029 3288 13313 1 149.00000 418.400000
12029 3289 13100 1 149.00000 418.400000
12029 3290 12957 1 149.00000 418.400000
12674 3291 13219 1 149.00000 418.400000
12030 3292 13201 1 149.00000 418.400000
12030 3293 12674 1 149.00000 418.400000
12030 3294 13075 1 149.00000 418.400000
12031 3295 13242 1 149.00000 418.400000
12031 3296 14603 1 149.00000 418.400000
12031 3297 13696 1 149.00000 418.400000
12969 3298 13529 1 149.00000 418.400000
12032 3299 12499 1 149.00000 418.400000
12032 3300 12969 1 149.00000 418.400000
12032 3301 21429 1 149.00000 418.400000
20109 3302 22149 1 149.00000 418.400000
20109 3303 20649 1 149.00000 418.400000
15060 3304 20109 1 149.00000 418.400000
12033 3305 15021 1 149.00000 418.400000
12033 3306 13952 1 149.00000 418.400000
12033 3307 14763 1 149.00000 418.400000
12033 3308 12234 1 149.00000 418.400000
11864 3309 12034 1 149.00000 418.400000
12034 3310 12515 1 149.00000 418.400000
12034 3311 13415 1 149.00000 418.400000
12034 3312 15803 1 149.00000 418.400000
12035 3313 15508 1 149.00000 418.400000
12035 3314 15627 1 149.00000 418.400000
12035 3315 12155 1 149.00000 418.400000
12035 3316 15804 1 149.00000 418.400000
12036 3317 14031 1 149.00000 418.400000
12036 3318 15539 1 149.00000 418.400000
12036 3319 14120 1 149.00000 418.400000
12037 3320 15231 1 149.00000 418.400000
12037 3321 15792 1 149.00000 418.400000
12037 3322 13378 1 149.00000 418.400000
12038 3323 14413 1 149.00000 418.400000
12038 3324 12868 1 149.00000 418.400000
12039 3325 13125 1 149.00000 418.400000
12039 3326 14073 1 149.00000 418.400000
12039 3327 13276 1 149.00000 418.400000
12854 3328 14073 1 149.00000 418.400000
12040 3329 13397 1 149.00000 418.400000
12040 3330 13120 1 149.00000 418.400000
12040 3331 12607 1 149.00000 418.400000
12040 3332 17435 1 149.00000 418.400000
20121 3333 23529 1 149.00000 418.400000
13768 3334 20121 1 149.00000 418.400000
13731 3335 20121 1 149.00000 418.400000
12041 3336 15065 1 149.00000 418.400000
12041 3337 20841 1 149.00000 418.400000
20133 3338 24279 1 149.00000 418.400000
15612 3339 20133 1 149.00000 418.400000
12042 3340 13341 1 149.00000 418.400000
12042 3341 12967 1 149.00000 418.400000
12042 3342 13064 1 149.00000 418.400000
12042 3343 15452 1 149.00000 418.400000
12043 3344 13501 1 149.00000 418.400000
12043 3345 24042 1 149.00000 418.400000
12043 3346 12393 1 149.00000 418.400000
12043 3347 24654 1 149.00000 418.400000
12044 3348 14425 1 149.00000 418.400000
12044 3349 14182 1 149.00000 418.400000
12044 3350 12360 1 149.00000 418.400000
13538 3351 20145 1 149.00000 418.400000
14862 3352 20145 1 149.00000 418.400000
20145 3353 24555 1 149.00000 418.400000
12045 3354 14292 1 149.00000 418.400000
12045 3355 15800 1 149.00000 418.400000
12045 3356 14330 1 149.00000 418.400000
13765 3357 16203 1 149.00000 418.400000
12046 3358 21777 1 149.00000 418.400000
12046 3359 13765 1 149.00000 418.400000
12046 3360 12253 1 149.00000 418.400000
12047 3361 14235 1 149.00000 418.400000
12047 3362 15922 1 149.00000 418.400000
12047 3363 12789 1 149.00000 418.400000
12048 3364 12283 1 149.00000 418.400000
12048 3365 20649 1 149.00000 418.400000
13249 3366 16009 1 149.00000 418.400000
12048 3367 13249 1 149.00000 418.400000
12049 3368 12911 1 149.00000 418.400000
12049 3369 12920 1 149.00000 418.400000
12049 3370 15393 1 149.00000 418.400000
13113 3371 20157 1 149.00000 418.400000
12050 3372 22617 1 149.00000 418.400000
12050 3373 12901 1 149.00000 418.400000
12050 3374 12067 1 149.00000 418.400000
12050 3375 15042 1 149.00000 418.400000
14284 3376 20169 1 149.00000 418.400000
15009 3377 20169 1 149.00000 418.400000
14967 3378 20169 1 149.00000 418.400000
13098 3379 20181 1 149.00000 418.400000
20181 3380 24219 1 149.00000 418.400000
12051 3381 14451 1 149.00000 418.400000
12051 3382 14342 1 149.00000 418.400000
12051 3383 12510 1 149.00000 418.400000
12051 3384 13737 1 149.00000 418.400000
14627 3385 20193 1 149.00000 418.400000
12559 3386 20193 1 149.00000 418.400000
13186 3387 20193 1 149.00000 418.400000
12052 3388 15534 1 149.00000 418.400000
12052 3389 12843 1 149.00000 418.400000
12052 3390 14105 1 149.00000 418.400000
12052 3391 13384 1 149.00000 418.400000
12053 3392 13953 1 149.00000 418.400000
12053 3393 12647 1 149.00000 418.400000
12053 3394 16134 1 149.00000 418.400000
12053 3395 13356 1 149.00000 418.400000
12054 3396 12309 1 149.00000 418.400000
12054 3397 13887 1 149.00000 418.400000
12054 3398 16089 1 149.00000 418.400000
12055 3399 15657 1 149.00000 418.400000
12055 3400 13182 1 149.00000 418.400000
12055 3401 13581 1 149.00000 418.400000
12056 3402 14455 1 149.00000 418.400000
12056 3403 13451 1 149.00000 418.400000
12056 3404 14925 1 149.00000 418.400000
12056 3405 13890 1 149.00000 418.400000
12057 3406 15813 1 149.00000 418.400000
12346 3407 14556 1 149.00000 418.400000
12058 3408 12346 1 149.00000 418.400000
12058 3409 14886 1 149.00000 418.400000
12059 3410 15866 1 149.00000 418.400000
12059 3411 16033 1 149.00000 418.400000
12059 3412 14136 1 149.00000 418.400000
12059 3413 15942 1 149.00000 418.400000
12060 3414 12792 1 149.00000 418.400000
12792 3415 13774 1 149.00000 418.400000
12060 3416 12619 1 149.00000 418.400000
14345 3417 20205 1 149.00000 418.400000
20205 3418 24729 1 149.00000 418.400000
20205 3419 22365 1 149.00000 418.400000
12061 3420 14310 1 149.00000 418.400000
12061 3421 14728 1 149.00000 418.400000
12061 3422 15261 1 149.00000 418.400000
12061 3423 15297 1 149.00000 418.400000
12062 3424 15247 1 149.00000 418.400000
12062 3425 16833 1 149.00000 418.400000
12063 3426 15115 1 149.00000 418.400000
12063 3427 13705 1 149.00000 418.400000
12063 3428 15601 1 149.00000 418.400000
12063 3429 14339 1 149.00000 418.400000
14944 3430 20217 1 149.00000 418.400000
14087 3431 20217 1 149.00000 418.400000
11929 3432 12064 1 149.00000 418.400000
12064 3433 13767 1 149.00000 418.400000
12077 3434 19953 1 149.00000 418.400000
12065 3435 14368 1 149.00000 418.400000
12065 3436 12104 1 149.00000 418.400000
12065 3437 14544 1 149.00000 418.400000
12065 3438 14306 1 149.00000 418.400000
12066 3439 12647 1 149.00000 418.400000
12066 3440 12697 1 149.00000 418.400000
12066 3441 16008 1 149.00000 418.400000
12066 3442 15096 1 149.00000 418.400000
12067 3443 23601 1 149.00000 418.400000
12068 3444 12771 1 149.00000 418.400000
12068 3445 13153 1 149.00000 418.400000
12068 3446 13402 1 149.00000 418.400000
12068 3447 13210 1 149.00000 418.400000
12069 3448 12660 1 149.00000 418.400000
12069 3449 14210 1 149.00000 418.400000
12007 3450 12069 1 149.00000 418.400000
12069 3451 15287 1 149.00000 418.400000
12070 3452 14234 1 149.00000 418.400000
12070 3453 12968 1 149.00000 418.400000
12071 3454 14349 1 149.00000 418.400000
12071 3455 12101 1 149.00000 418.400000
12071 3456 15350 1 149.00000 418.400000
12072 3457 15798 1 149.00000 418.400000
14371 3458 16142 1 149.00000 418.400000
12072 3459 12620 1 149.00000 418.400000
12073 3460 15253 1 149.00000 418.400000
12073 3461 13933 1 149.00000 418.400000
12073 3462 15449 1 149.00000 418.400000
12073 3463 24579 1 149.00000 418.400000
11389 3464 12074 1 149.00000 418.400000
12074 3465 14415 1 149.00000 418.400000
12074 3466 14768 1 149.00000 418.400000
12074 3467 15592 1 149.00000 418.400000
12075 3468 15520 1 149.00000 418.400000
12075 3469 13759 1 149.00000 418.400000
12075 3470 24465 1 149.00000 418.400000
12076 3471 13260 1 149.00000 418.400000
12076 3472 14589 1 149.00000 418.400000
12076 3473 14585 1 149.00000 418.400000
12076 3474 13082 1 149.00000 418.400000
12077 3475 15227 1 149.00000 418.400000
12077 3476 13982 1 149.00000 418.400000
12151 3477 20229 1 149.00000 418.400000
20229 3478 23265 1 149.00000 418.400000
20229 3479 22701 1 149.00000 418.400000
12078 3480 13085 1 149.00000 418.400000
12078 3481 15529 1 149.00000 418.400000
12078 3482 13866 1 149.00000 418.400000
12078 3483 13591 1 149.00000 418.400000
12079 3484 14549 1 149.00000 418.400000
12079 3485 16202 1 149.00000 418.400000
15079 3486 20241 1 149.00000 418.400000
13080 3487 20241 1 149.00000 418.400000
14463 3488 20241 1 149.00000 418.400000
12080 3489 16039 1 149.00000 418.400000
12080 3490 19941 1 149.00000 418.400000
12080 3491 12880 1 149.00000 418.400000
22437 3492 24120 1 149.00000 418.400000
22437 3493 24189 1 149.00000 418.400000
15765 3494 23457 1 149.00000 418.400000
12081 3495 13367 1 149.00000 418.400000
12081 3496 14741 1 149.00000 418.400000
12081 3497 15433 1 149.00000 418.400000
12081 3498 14540 1 149.00000 418.400000
12082 3499 15881 1 149.00000 418.400000
12082 3500 20493 1 149.00000 418.400000
12082 3501 13564 1 149.00000 418.400000
12082 3502 14506 1 149.00000 418.400000
12083 3503 13199 1 149.00000 418.400000
12083 3504 16651 1 149.00000 418.400000
12083 3505 15720 1 149.00000 418.400000
12084 3506 13959 1 149.00000 418.400000
12084 3507 14680 1 149.00000 418.400000
12084 3508 14536 1 149.00000 418.400000
12084 3509 15494 1 149.00000 418.400000
12085 3510 13520 1 149.00000 418.400000
12085 3511 13533 1 149.00000 418.400000
12085 3512 14685 1 149.00000 418.400000
12085 3513 15943 1 149.00000 418.400000
12086 3514 14583 1 149.00000 418.400000
12086 3515 15517 1 149.00000 418.400000
12087 3516 15021 1 149.00000 418.400000
12087 3517 12390 1 149.00000 418.400000
12088 3518 23277 1 149.00000 418.400000
12088 3519 22641 1 149.00000 418.400000
12088 3520 12756 1 149.00000 418.400000
12089 3521 15462 1 149.00000 418.400000
12089 3522 13081 1 149.00000 418.400000
12089 3523 15572 1 149.00000 418.400000
12089 3524 15566 1 149.00000 418.400000
20253 3525 23421 1 149.00000 418.400000
15069 3526 20253 1 149.00000 418.400000
20253 3527 24096 1 149.00000 418.400000
12090 3528 16074 1 149.00000 418.400000
12090 3529 15812 1 149.00000 418.400000
12090 3530 15293 1 149.00000 418.400000
12091 3531 13605 1 149.00000 418.400000
12091 3532 12975 1 149.00000 418.400000
12091 3533 13415 1 149.00000 418.400000
12091 3534 15405 1 149.00000 418.400000
12092 3535 12529 1 149.00000 418.400000
12092 3536 16202 1 149.00000 418.400000
12092 3537 24674 1 149.00000 418.400000
12093 3538 16130 1 149.00000 418.400000
12093 3539 21549 1 149.00000 418.400000
12093 3540 17351 1 149.00000 418.400000
12093 3541 13835 1 149.00000 418.400000
12094 3542 12270 1 149.00000 418.400000
12094 3543 24724 1 149.00000 418.400000
12094 3544 14025 1 149.00000 418.400000
12094 3545 14227 1 149.00000 418.400000
12095 3546 15603 1 149.00000 418.400000
12095 3547 12438 1 149.00000 418.400000
12095 3548 14445 1 149.00000 418.400000
12096 3549 22845 1 149.00000 418.400000
12096 3550 14376 1 149.00000 418.400000
12096 3551 14491 1 149.00000 418.400000
12096 3552 15124 1 149.00000 418.400000
12097 3553 13974 1 149.00000 418.400000
12097 3554 13481 1 149.00000 418.400000
12098 3555 15936 1 149.00000 418.400000
12098 3556 12323 1 149.00000 418.400000
12098 3557 15981 1 149.00000 418.400000
12098 3558 14709 1 149.00000 418.400000
20265 3559 24126 1 149.00000 418.400000
18023 3560 20265 1 149.00000 418.400000
13501 3561 20265 1 149.00000 418.400000
15522 3562 16131 1 149.00000 418.400000
12099 3563 12187 1 149.00000 418.400000
12099 3564 15522 1 149.00000 418.400000
12681 3565 15522 1 149.00000 418.400000
13348 3566 20277 1 149.00000 418.400000
20277 3567 24315 1 149.00000 418.400000
20277 3568 24093 1 149.00000 418.400000
16217 3569 24784 1 149.00000 418.400000
16217 3570 24396 1 149.00000 418.400000
12100 3571 14307 1 149.00000 418.400000
12100 3572 13078 1 149.00000 418.400000
12100 3573 14151 1 149.00000 418.400000
12100 3574 12333 1 149.00000 418.400000
12101 3575 12662 1 149.00000 418.400000
12101 3576 15923 1 149.00000 418.400000
11613 3577 13085 1 149.00000 418.400000
12102 3578 13198 1 149.00000 418.400000
12102 3579 13866 1 149.00000 418.400000
12103 3580 15879 1 149.00000 418.400000
12103 3581 15330 1 149.00000 418.400000
12103 3582 15100 1 149.00000 418.400000
12104 3583 14084 1 149.00000 418.400000
12105 3584 14876 1 149.00000 418.400000
12105 3585 15279 1 149.00000 418.400000
12105 3586 12769 1 149.00000 418.400000
12892 3587 15948 1 149.00000 418.400000
12106 3588 12892 1 149.00000 418.400000
12106 3589 16040 1 149.00000 418.400000
12106 3590 12997 1 149.00000 418.400000
12107 3591 15216 1 149.00000 418.400000
12107 3592 12424 1 149.00000 418.400000
12107 3593 12757 1 149.00000 418.400000
12107 3594 14883 1 149.00000 418.400000
12108 3595 13550 1 149.00000 418.400000
12108 3596 15612 1 149.00000 418.400000
12108 3597 14118 1 149.00000 418.400000
12109 3598 14640 1 149.00000 418.400000
12109 3599 12284 1 149.00000 418.400000
12109 3600 12198 1 149.00000 418.400000
20289 3601 23961 1 149.00000 418.400000
12110 3602 14332 1 149.00000 418.400000
12110 3603 21813 1 149.00000 418.400000
12110 3604 21801 1 149.00000 418.400000
12111 3605 14057 1 149.00000 418.400000
12111 3606 13712 1 149.00000 418.400000
12111 3607 14093 1 149.00000 418.400000
12111 3608 13978 1 149.00000 418.400000
12112 3609 14834 1 149.00000 418.400000
12112 3610 13915 1 149.00000 418.400000
12112 3611 15718 1 149.00000 418.400000
12112 3612 15010 1 149.00000 418.400000
12113 3613 14553 1 149.00000 418.400000
12113 3614 12506 1 149.00000 418.400000
12113 3615 14666 1 149.00000 418.400000
12113 3616 13041 1 149.00000 418.400000
11576 3617 14762 1 149.00000 418.400000
12114 3618 13432 1 149.00000 418.400000
12114 3619 12736 1 149.00000 418.400000
12115 3620 14915 1 149.00000 418.400000
12115 3621 14194 1 149.00000 418.400000
12115 3622 15326 1 149.00000 418.400000
12116 3623 12411 1 149.00000 418.400000
12116 3624 15367 1 149.00000 418.400000
15367 3625 21309 1 149.00000 418.400000
12116 3626 24573 1 149.00000 418.400000
20301 3627 21093 1 149.00000 418.400000
21741 3628 23829 1 149.00000 418.400000
12117 3629 13480 1 149.00000 418.400000
13480 3630 15240 1 149.00000 418.400000
12117 3631 14889 1 149.00000 418.400000
12118 3632 12584 1 149.00000 418.400000
12118 3633 24799 1 149.00000 418.400000
12118 3634 13427 1 149.00000 418.400000
17855 3635 24799 1 149.00000 418.400000
12119 3636 15619 1 149.00000 418.400000
12119 3637 13753 1 149.00000 418.400000
12120 3638 15319 1 149.00000 418.400000
12120 3639 15339 1 149.00000 418.400000
12120 3640 15855 1 149.00000 418.400000
12120 3641 13878 1 149.00000 418.400000
15198 3642 20313 1 149.00000 418.400000
14699 3643 20313 1 149.00000 418.400000
17841 3644 20325 1 149.00000 418.400000
20325 3645 21861 1 149.00000 418.400000
12121 3646 13957 1 149.00000 418.400000
12121 3647 13172 1 149.00000 418.400000
12121 3648 12681 1 149.00000 418.400000
12122 3649 12965 1 149.00000 418.400000
12122 3650 14896 1 149.00000 418.400000
12123 3651 15475 1 149.00000 418.400000
12123 3652 12246 1 149.00000 418.400000
12123 3653 15893 1 149.00000 418.400000
12124 3654 12903 1 149.00000 418.400000
11726 3655 13557 1 149.00000 418.400000
12124 3656 13724 1 149.00000 418.400000
12124 3657 13557 1 149.00000 418.400000
12125 3658 15900 1 149.00000 418.400000
12125 3659 14689 1 149.00000 418.400000
12125 3660 14769 1 149.00000 418.400000
12126 3661 14489 1 149.00000 418.400000
12126 3662 15326 1 149.00000 418.400000
12126 3663 14689 1 149.00000 418.400000
12127 3664 12335 1 149.00000 418.400000
12127 3665 13041 1 149.00000 418.400000
12127 3666 13549 1 149.00000 418.400000
12127 3667 13751 1 149.00000 418.400000
12128 3668 14458 1 149.00000 418.400000
12128 3669 14333 1 149.00000 418.400000
12128 3670 12213 1 149.00000 418.400000
12128 3671 15728 1 149.00000 418.400000
12129 3672 12879 1 149.00000 418.400000
12129 3673 14145 1 149.00000 418.400000
12129 3674 13897 1 149.00000 418.400000
12129 3675 14193 1 149.00000 418.400000
15978 3676 20337 1 149.00000 418.400000
20337 3677 23982 1 149.00000 418.400000
12130 3678 15131 1 149.00000 418.400000
12130 3679 12500 1 149.00000 418.400000
12130 3680 15261 1 149.00000 418.400000
12131 3681 15205 1 149.00000 418.400000
12131 3682 13552 1 149.00000 418.400000
12132 3683 15575 1 149.00000 418.400000
12132 3684 15803 1 149.00000 418.400000
12132 3685 15164 1 149.00000 418.400000
12133 3686 21237 1 149.00000 418.400000
12133 3687 12306 1 149.00000 418.400000
12134 3688 12559 1 149.00000 418.400000
12134 3689 15333 1 149.00000 418.400000
12134 3690 15602 1 149.00000 418.400000
12135 3691 14074 1 149.00000 418.400000
12135 3692 15000 1 149.00000 418.400000
12135 3693 12862 1 149.00000 418.400000
12136 3694 15996 1 149.00000 418.400000
11377 3695 12136 1 149.00000 418.400000
12136 3696 14461 1 149.00000 418.400000
12136 3697 16013 1 149.00000 418.400000
12137 3698 13453 1 149.00000 418.400000
12137 3699 13400 1 149.00000 418.400000
12137 3700 14805 1 149.00000 418.400000
12137 3701 12374 1 149.00000 418.400000
12138 3702 13067 1 149.00000 418.400000
12138 3703 13591 1 149.00000 418.400000
12139 3704 14550 1 149.00000 418.400000
12139 3705 15525 1 149.00000 418.400000
12139 3706 12203 1 149.00000 418.400000
12139 3707 13338 1 149.00000 418.400000
12847 3708 13775 1 149.00000 418.400000
12140 3709 12847 1 149.00000 418.400000
12140 3710 16153 1 149.00000 418.400000
12140 3711 15661 1 149.00000 418.400000
12141 3712 13072 1 149.00000 418.400000
12141 3713 12517 1 149.00000 418.400000
13072 3714 13754 1 149.00000 418.400000
12141 3715 14787 1 149.00000 418.400000
12142 3716 15550 1 149.00000 418.400000
12142 3717 12578 1 149.00000 418.400000
12142 3718 15792 1 149.00000 418.400000
12142 3719 13115 1 149.00000 418.400000
12143 3720 13305 1 149.00000 418.400000
12143 3721 12352 1 149.00000 418.400000
12143 3722 13721 1 149.00000 418.400000
12144 3723 13962 1 149.00000 418.400000
12144 3724 13671 1 149.00000 418.400000
12144 3725 12459 1 149.00000 418.400000
12145 3726 15127 1 149.00000 418.400000
12145 3727 24216 1 149.00000 418.400000
12146 3728 13141 1 149.00000 418.400000
12981 3729 13141 1 149.00000 418.400000
12146 3730 14961 1 149.00000 418.400000
12146 3731 15841 1 149.00000 418.400000
12147 3732 16073 1 149.00000 418.400000
12147 3733 12698 1 149.00000 418.400000
12147 3734 14051 1 149.00000 418.400000
12147 3735 16112 1 149.00000 418.400000
20349 3736 24603 1 149.00000 418.400000
15547 3737 20349 1 149.00000 418.400000
12148 3738 24609 1 149.00000 418.400000
12046 3739 12148 1 149.00000 418.400000
12148 3740 24192 1 149.00000 418.400000
12149 3741 14019 1 149.00000 418.400000
12149 3742 15713 1 149.00000 418.400000
12149 3743 12654 1 149.00000 418.400000
12149 3744 15185 1 149.00000 418.400000
12150 3745 14569 1 149.00000 418.400000
12150 3746 16158 1 149.00000 418.400000
12150 3747 12811 1 149.00000 418.400000
12150 3748 16099 1 149.00000 418.400000
12151 3749 12677 1 149.00000 418.400000
12151 3750 16113 1 149.00000 418.400000
12152 3751 21273 1 149.00000 418.400000
12152 3752 16050 1 149.00000 418.400000
12152 3753 12520 1 149.00000 418.400000
12152 3754 12199 1 149.00000 418.400000
12153 3755 13358 1 149.00000 418.400000
12153 3756 13944 1 149.00000 418.400000
12153 3757 15802 1 149.00000 418.400000
12153 3758 12416 1 149.00000 418.400000
11834 3759 12380 1 149.00000 418.400000
12154 3760 14562 1 149.00000 418.400000
12154 3761 15920 1 149.00000 418.400000
12155 3762 13097 1 149.00000 418.400000
12155 3763 15728 1 149.00000 418.400000
12156 3764 13885 1 149.00000 418.400000
12156 3765 15639 1 149.00000 418.400000
12157 3766 13421 1 149.00000 418.400000
12157 3767 13646 1 149.00000 418.400000
12157 3768 14800 1 149.00000 418.400000
12157 3769 14379 1 149.00000 418.400000
11446 3770 15271 1 149.00000 418.400000
16679 3771 20361 1 149.00000 418.400000
20361 3772 23541 1 149.00000 418.400000
12159 3773 23193 1 149.00000 418.400000
12159 3774 13365 1 149.00000 418.400000
12159 3775 24549 1 149.00000 418.400000
12160 3776 24606 1 149.00000 418.400000
12160 3777 12558 1 149.00000 418.400000
12160 3778 12574 1 149.00000 418.400000
12160 3779 22341 1 149.00000 418.400000
12161 3780 15153 1 149.00000 418.400000
12161 3781 13953 1 149.00000 418.400000
12161 3782 15237 1 149.00000 418.400000
12161 3783 12407 1 149.00000 418.400000
12162 3784 15905 1 149.00000 418.400000
12162 3785 15615 1 149.00000 418.400000
12162 3786 13239 1 149.00000 418.400000
12163 3787 13013 1 149.00000 418.400000
12163 3788 12168 1 149.00000 418.400000
12163 3789 12741 1 149.00000 418.400000
12164 3790 12832 1 149.00000 418.400000
12164 3791 14787 1 149.00000 418.400000
12164 3792 14240 1 149.00000 418.400000
12165 3793 14319 1 149.00000 418.400000
12165 3794 12612 1 149.00000 418.400000
12165 3795 15659 1 149.00000 418.400000
11555 3796 12165 1 149.00000 418.400000
12166 3797 13111 1 149.00000 418.400000
12166 3798 12347 1 149.00000 418.400000
12166 3799 12965 1 149.00000 418.400000
12166 3800 15914 1 149.00000 418.400000
12167 3801 15536 1 149.00000 418.400000
12167 3802 12761 1 149.00000 418.400000
12167 3803 13377 1 149.00000 418.400000
12167 3804 13397 1 149.00000 418.400000
12163 3805 12188 1 149.00000 418.400000
12168 3806 12626 1 149.00000 418.400000
12168 3807 14758 1 149.00000 418.400000
12169 3808 14745 1 149.00000 418.400000
12169 3809 14456 1 149.00000 418.400000
12169 3810 12474 1 149.00000 418.400000
12169 3811 13778 1 149.00000 418.400000
14213 3812 16165 1 149.00000 418.400000
12170 3813 12945 1 149.00000 418.400000
12170 3814 16022 1 149.00000 418.400000
12170 3815 14213 1 149.00000 418.400000
12171 3816 14127 1 149.00000 418.400000
12171 3817 13490 1 149.00000 418.400000
12171 3818 13050 1 149.00000 418.400000
12172 3819 13685 1 149.00000 418.400000
12172 3820 14310 1 149.00000 418.400000
12172 3821 13654 1 149.00000 418.400000
12172 3822 14682 1 149.00000 418.400000
12173 3823 14778 1 149.00000 418.400000
12173 3824 14200 1 149.00000 418.400000
12173 3825 14391 1 149.00000 418.400000
12174 3826 15517 1 149.00000 418.400000
12174 3827 13688 1 149.00000 418.400000
12174 3828 12714 1 149.00000 418.400000
12175 3829 15943 1 149.00000 418.400000
12175 3830 14763 1 149.00000 418.400000
12175 3831 14402 1 149.00000 418.400000
12176 3832 19401 1 149.00000 418.400000
13860 3833 16082 1 149.00000 418.400000
12176 3834 24057 1 149.00000 418.400000
12177 3835 15261 1 149.00000 418.400000
12177 3836 13698 1 149.00000 418.400000
12177 3837 16037 1 149.00000 418.400000
12178 3838 13923 1 149.00000 418.400000
12178 3839 13379 1 149.00000 418.400000
12178 3840 13666 1 149.00000 418.400000
12178 3841 15837 1 149.00000 418.400000
12179 3842 12706 1 149.00000 418.400000
12179 3843 14482 1 149.00000 418.400000
12179 3844 15542 1 149.00000 418.400000
12180 3845 23565 1 149.00000 418.400000
12180 3846 14997 1 149.00000 418.400000
12180 3847 21609 1 149.00000 418.400000
12180 3848 15819 1 149.00000 418.400000
12181 3849 13369 1 149.00000 418.400000
12181 3850 12492 1 149.00000 418.400000
12181 3851 12774 1 149.00000 418.400000
12182 3852 13133 1 149.00000 418.400000
12182 3853 14642 1 149.00000 418.400000
12182 3854 15876 1 149.00000 418.400000
12183 3855 15563 1 149.00000 418.400000
12183 3856 14169 1 149.00000 418.400000
12183 3857 15678 1 149.00000 418.400000
12183 3858 13409 1 149.00000 418.400000
12184 3859 13092 1 149.00000 418.400000
12184 3860 15917 1 149.00000 418.400000
12184 3861 15750 1 149.00000 418.400000
12184 3862 13670 1 149.00000 418.400000
12185 3863 13832 1 149.00000 418.400000
12185 3864 15212 1 149.00000 418.400000
12185 3865 16078 1 149.00000 418.400000
12185 3866 15232 1 149.00000 418.400000
12186 3867 13111 1 149.00000 418.400000
12186 3868 15073 1 149.00000 418.400000
12187 3869 15302 1 149.00000 418.400000
12188 3870 15744 1 149.00000 418.400000
12188 3871 13096 1 149.00000 418.400000
12188 3872 12812 1 149.00000 418.400000
12189 3873 13082 1 149.00000 418.400000
12189 3874 14301 1 149.00000 418.400000
12189 3875 14786 1 149.00000 418.400000
12189 3876 12662 1 149.00000 418.400000
12756 3877 20373 1 149.00000 418.400000
20373 3878 24243 1 149.00000 418.400000
20385 3879 24153 1 149.00000 418.400000
20385 3880 23673 1 149.00000 418.400000
15077 3881 20385 1 149.00000 418.400000
12190 3882 14535 1 149.00000 418.400000
12190 3883 13740 1 149.00000 418.400000
12190 3884 13078 1 149.00000 418.400000
12190 3885 23907 1 149.00000 418.400000
12191 3886 14489 1 149.00000 418.400000
12191 3887 15219 1 149.00000 418.400000
12191 3888 15603 1 149.00000 418.400000
12192 3889 15496 1 149.00000 418.400000
12192 3890 13110 1 149.00000 418.400000
12192 3891 14020 1 149.00000 418.400000
12193 3892 13204 1 149.00000 418.400000
12193 3893 12304 1 149.00000 418.400000
12193 3894 15169 1 149.00000 418.400000
12194 3895 15387 1 149.00000 418.400000
12194 3896 14276 1 149.00000 418.400000
12194 3897 14292 1 149.00000 418.400000
12194 3898 15098 1 149.00000 418.400000
12195 3899 24249 1 149.00000 418.400000
12195 3900 13049 1 149.00000 418.400000
12195 3901 16145 1 149.00000 418.400000
12196 3902 14021 1 149.00000 418.400000
12196 3903 13568 1 149.00000 418.400000
12196 3904 20925 1 149.00000 418.400000
12196 3905 12221 1 149.00000 418.400000
12197 3906 14537 1 149.00000 418.400000
12197 3907 13206 1 149.00000 418.400000
12197 3908 14866 1 149.00000 418.400000
12197 3909 12469 1 149.00000 418.400000
12198 3910 14989 1 149.00000 418.400000
12198 3911 14092 1 149.00000 418.400000
12198 3912 12466 1 149.00000 418.400000
12199 3913 14370 1 149.00000 418.400000
12199 3914 23181 1 149.00000 418.400000
12200 3915 14187 1 149.00000 418.400000
12200 3916 15030 1 149.00000 418.400000
12200 3917 12697 1 149.00000 418.400000
12200 3918 16192 1 149.00000 418.400000
13649 3919 14147 1 149.00000 418.400000
12201 3920 13649 1 149.00000 418.400000
12201 3921 16129 1 149.00000 418.400000
22881 3922 23469 1 149.00000 418.400000
12202 3923 23469 1 149.00000 418.400000
12203 3924 15054 1 149.00000 418.400000
12203 3925 14894 1 149.00000 418.400000
12203 3926 13818 1 149.00000 418.400000
12204 3927 24117 1 149.00000 418.400000
12204 3928 14328 1 149.00000 418.400000
13053 3929 20397 1 149.00000 418.400000
20397 3930 23529 1 149.00000 418.400000
12205 3931 14248 1 149.00000 418.400000
12205 3932 15202 1 149.00000 418.400000
12205 3933 14298 1 149.00000 418.400000
12205 3934 13637 1 149.00000 418.400000
13044 3935 24120 1 149.00000 418.400000
13044 3936 20409 1 149.00000 418.400000
12206 3937 13100 1 149.00000 418.400000
12206 3938 13507 1 149.00000 418.400000
12207 3939 14626 1 149.00000 418.400000
12207 3940 12809 1 149.00000 418.400000
12207 3941 13744 1 149.00000 418.400000
12207 3942 15287 1 149.00000 418.400000
12208 3943 13486 1 149.00000 418.400000
12208 3944 12939 1 149.00000 418.400000
12208 3945 14938 1 149.00000 418.400000
12209 3946 24213 1 149.00000 418.400000
12210 3947 13614 1 149.00000 418.400000
12210 3948 13226 1 149.00000 418.400000
12210 3949 14493 1 149.00000 418.400000
12211 3950 12564 1 149.00000 418.400000
12211 3951 14403 1 149.00000 418.400000
12211 3952 12889 1 149.00000 418.400000
12211 3953 13462 1 149.00000 418.400000
12212 3954 13306 1 149.00000 418.400000
12212 3955 13754 1 149.00000 418.400000
13306 3956 17729 1 149.00000 418.400000
12212 3957 13072 1 149.00000 418.400000
12213 3958 14232 1 149.00000 418.400000
12213 3959 14391 1 149.00000 418.400000
12214 3960 14079 1 149.00000 418.400000
12214 3961 12371 1 149.00000 418.400000
12215 3962 13495 1 149.00000 418.400000
12215 3963 14452 1 149.00000 418.400000
12215 3964 12905 1 149.00000 418.400000
12215 3965 14758 1 149.00000 418.400000
12216 3966 13959 1 149.00000 418.400000
12216 3967 14996 1 149.00000 418.400000
12216 3968 14044 1 149.00000 418.400000
12216 3969 13459 1 149.00000 418.400000
12217 3970 15089 1 149.00000 418.400000
12217 3971 12230 1 149.00000 418.400000
11593 3972 13290 1 149.00000 418.400000
12218 3973 12860 1 149.00000 418.400000
12218 3974 24540 1 149.00000 418.400000
12218 3975 14618 1 149.00000 418.400000
12218 3976 18065 1 149.00000 418.400000
12219 3977 14276 1 149.00000 418.400000
12219 3978 15180 1 149.00000 418.400000
12220 3979 13712 1 149.00000 418.400000
12220 3980 12988 1 149.00000 418.400000
12220 3981 14331 1 149.00000 418.400000
12221 3982 16072 1 149.00000 418.400000
12221 3983 23553 1 149.00000 418.400000
12221 3984 13496 1 149.00000 418.400000
12222 3985 14170 1 149.00000 418.400000
12222 3986 16199 1 149.00000 418.400000
12222 3987 15568 1 149.00000 418.400000
12222 3988 14471 1 149.00000 418.400000
12223 3989 15172 1 149.00000 418.400000
12223 3990 13045 1 149.00000 418.400000
12223 3991 13954 1 149.00000 418.400000
12223 3992 14295 1 149.00000 418.400000
12224 3993 18317 1 149.00000 418.400000
12224 3994 12930 1 149.00000 418.400000
12224 3995 14780 1 149.00000 418.400000
12224 3996 12858 1 149.00000 418.400000
12225 3997 16097 1 149.00000 418.400000
12225 3998 13971 1 149.00000 418.400000
12225 3999 13867 1 149.00000 418.400000
12226 4000 14290 1 149.00000 418.400000
12226 4001 14296 1 149.00000 418.400000
12226 4002 15211 1 149.00000 418.400000
12227 4003 15486 1 149.00000 418.400000
12227 4004 15831 1 149.00000 418.400000
12228 4005 13396 1 149.00000 418.400000
12228 4006 15471 1 149.00000 418.400000
12228 4007 14233 1 149.00000 418.400000
12228 4008 14261 1 149.00000 418.400000
12229 4009 15173 1 149.00000 418.400000
11944 4010 12229 1 149.00000 418.400000
12229 4011 13791 1 149.00000 418.400000
12230 4012 13418 1 149.00000 418.400000
12230 4013 12731 1 149.00000 418.400000
12231 4014 17729 1 149.00000 418.400000
12231 4015 12966 1 149.00000 418.400000
12231 4016 13216 1 149.00000 418.400000
14480 4017 20421 1 149.00000 418.400000
20421 4018 24240 1 149.00000 418.400000
12232 4019 14371 1 149.00000 418.400000
12232 4020 14632 1 149.00000 418.400000
12232 4021 15956 1 149.00000 418.400000
12565 4022 15747 1 149.00000 418.400000
12233 4023 22929 1 149.00000 418.400000
12233 4024 12618 1 149.00000 418.400000
12233 4025 15747 1 149.00000 418.400000
12234 4026 12961 1 149.00000 418.400000
12961 4027 15957 1 149.00000 418.400000
13052 4028 20433 1 149.00000 418.400000
15884 4029 20433 1 149.00000 418.400000
11430 4030 14560 1 149.00000 418.400000
12235 4031 24399 1 149.00000 418.400000
12235 4032 20901 1 149.00000 418.400000
20445 4033 24201 1 149.00000 418.400000
13658 4034 20445 1 149.00000 418.400000
12236 4035 14193 1 149.00000 418.400000
13151 4036 15222 1 149.00000 418.400000
12236 4037 16162 1 149.00000 418.400000
12236 4038 15222 1 149.00000 418.400000
12237 4039 14902 1 149.00000 418.400000
12237 4040 13931 1 149.00000 418.400000
20457 4041 24384 1 149.00000 418.400000
15246 4042 20457 1 149.00000 418.400000
12238 4043 15095 1 149.00000 418.400000
12238 4044 12257 1 149.00000 418.400000
12238 4045 15851 1 149.00000 418.400000
12239 4046 12412 1 149.00000 418.400000
12239 4047 12913 1 149.00000 418.400000
12239 4048 13471 1 149.00000 418.400000
12240 4049 14751 1 149.00000 418.400000
12240 4050 18093 1 149.00000 418.400000
12240 4051 17939 1 149.00000 418.400000
12240 4052 14428 1 149.00000 418.400000
12241 4053 14627 1 149.00000 418.400000
12241 4054 13241 1 149.00000 418.400000
12241 4055 14457 1 149.00000 418.400000
12242 4056 13586 1 149.00000 418.400000
12242 4057 24141 1 149.00000 418.400000
12242 4058 15177 1 149.00000 418.400000
12243 4059 13421 1 149.00000 418.400000
12243 4060 17575 1 149.00000 418.400000
12243 4061 12548 1 149.00000 418.400000
12244 4062 15195 1 149.00000 418.400000
12244 4063 15307 1 149.00000 418.400000
12244 4064 13581 1 149.00000 418.400000
12244 4065 12285 1 149.00000 418.400000
12245 4066 15398 1 149.00000 418.400000
11796 4067 15398 1 149.00000 418.400000
12245 4068 14358 1 149.00000 418.400000
12246 4069 13905 1 149.00000 418.400000
12247 4070 14957 1 149.00000 418.400000
12247 4071 15040 1 149.00000 418.400000
12247 4072 12451 1 149.00000 418.400000
12247 4073 14465 1 149.00000 418.400000
12248 4074 15829 1 149.00000 418.400000
12248 4075 20553 1 149.00000 418.400000
12248 4076 23931 1 149.00000 418.400000
12249 4077 14908 1 149.00000 418.400000
12249 4078 15266 1 149.00000 418.400000
12249 4079 12686 1 149.00000 418.400000
12249 4080 15591 1 149.00000 418.400000
11623 4081 14409 1 149.00000 418.400000
12250 4082 24240 1 149.00000 418.400000
12250 4083 12431 1 149.00000 418.400000
12251 4084 13545 1 149.00000 418.400000
12251 4085 12655 1 149.00000 418.400000
12252 4086 14905 1 149.00000 418.400000
12252 4087 24689 1 149.00000 418.400000
12252 4088 14350 1 149.00000 418.400000
12253 4089 12336 1 149.00000 418.400000
12253 4090 13587 1 149.00000 418.400000
12253 4091 13333 1 149.00000 418.400000
12254 4092 13647 1 149.00000 418.400000
12254 4093 13168 1 149.00000 418.400000
12254 4094 12848 1 149.00000 418.400000
12254 4095 14670 1 149.00000 418.400000
12255 4096 13190 1 149.00000 418.400000
12255 4097 14918 1 149.00000 418.400000
12255 4098 13284 1 149.00000 418.400000
12255 4099 15032 1 149.00000 418.400000
12256 4100 13136 1 149.00000 418.400000
13136 4101 15738 1 149.00000 418.400000
17477 4102 20469 1 149.00000 418.400000
12980 4103 20469 1 149.00000 418.400000
12257 4104 13083 1 149.00000 418.400000
12257 4105 16046 1 149.00000 418.400000
12257 4106 15823 1 149.00000 418.400000
12766 4107 16055 1 149.00000 418.400000
12766 4108 20481 1 149.00000 418.400000
16158 4109 20481 1 149.00000 418.400000
15068 4110 20481 1 149.00000 418.400000
12870 4111 16273 1 149.00000 418.400000
12258 4112 12440 1 149.00000 418.400000
12258 4113 13845 1 149.00000 418.400000
12259 4114 14289 1 149.00000 418.400000
12259 4115 14513 1 149.00000 418.400000
12259 4116 16017 1 149.00000 418.400000
12259 4117 15758 1 149.00000 418.400000
12260 4118 24093 1 149.00000 418.400000
12260 4119 24594 1 149.00000 418.400000
12261 4120 16067 1 149.00000 418.400000
12261 4121 14417 1 149.00000 418.400000
12261 4122 15097 1 149.00000 418.400000
12261 4123 13975 1 149.00000 418.400000
12262 4124 15187 1 149.00000 418.400000
12262 4125 15955 1 149.00000 418.400000
12262 4126 13574 1 149.00000 418.400000
12262 4127 15599 1 149.00000 418.400000
12263 4128 13061 1 149.00000 418.400000
12263 4129 15320 1 149.00000 418.400000
12264 4130 15175 1 149.00000 418.400000
12264 4131 12910 1 149.00000 418.400000
12265 4132 14483 1 149.00000 418.400000
12265 4133 12446 1 149.00000 418.400000
12265 4134 14420 1 149.00000 418.400000
12266 4135 13545 1 149.00000 418.400000
12266 4136 13573 1 149.00000 418.400000
12266 4137 12317 1 149.00000 418.400000
12267 4138 14189 1 149.00000 418.400000
12267 4139 15557 1 149.00000 418.400000
12267 4140 14393 1 149.00000 418.400000
12268 4141 14743 1 149.00000 418.400000
12268 4142 15080 1 149.00000 418.400000
12268 4143 12332 1 149.00000 418.400000
12268 4144 12439 1 149.00000 418.400000
12269 4145 15957 1 149.00000 418.400000
12269 4146 13234 1 149.00000 418.400000
12269 4147 15021 1 149.00000 418.400000
12269 4148 14568 1 149.00000 418.400000
12270 4149 15229 1 149.00000 418.400000
12270 4150 18303 1 149.00000 418.400000
12271 4151 14696 1 149.00000 418.400000
12271 4152 13079 1 149.00000 418.400000
12271 4153 13378 1 149.00000 418.400000
12272 4154 13891 1 149.00000 418.400000
12272 4155 15478 1 149.00000 418.400000
12272 4156 13232 1 149.00000 418.400000
12272 4157 13903 1 149.00000 418.400000
12273 4158 15431 1 149.00000 418.400000
12273 4159 15397 1 149.00000 418.400000
12274 4160 15871 1 149.00000 418.400000
12274 4161 14903 1 149.00000 418.400000
12274 4162 14748 1 149.00000 418.400000
12275 4163 14563 1 149.00000 418.400000
12275 4164 13892 1 149.00000 418.400000
12275 4165 15698 1 149.00000 418.400000
12275 4166 13444 1 149.00000 418.400000
11332 4167 20493 1 149.00000 418.400000
11332 4168 24774 1 149.00000 418.400000
12276 4169 14246 1 149.00000 418.400000
12276 4170 15071 1 149.00000 418.400000
12276 4171 13541 1 149.00000 418.400000
17309 4172 20505 1 149.00000 418.400000
12277 4173 14196 1 149.00000 418.400000
12277 4174 14616 1 149.00000 418.400000
12277 4175 12282 1 149.00000 418.400000
12278 4176 15717 1 149.00000 418.400000
12278 4177 14421 1 149.00000 418.400000
12278 4178 13348 1 149.00000 418.400000
12279 4179 12404 1 149.00000 418.400000
12279 4180 15176 1 149.00000 418.400000
12279 4181 13309 1 149.00000 418.400000
12280 4182 12525 1 149.00000 418.400000
12280 4183 15216 1 149.00000 418.400000
12281 4184 21633 1 149.00000 418.400000
12281 4185 24132 1 149.00000 418.400000
12282 4186 14829 1 149.00000 418.400000
12282 4187 14681 1 149.00000 418.400000
12282 4188 15109 1 149.00000 418.400000
12283 4189 13080 1 149.00000 418.400000
12283 4190 15644 1 149.00000 418.400000
12284 4191 12518 1 149.00000 418.400000
12284 4192 13944 1 149.00000 418.400000
12284 4193 12556 1 149.00000 418.400000
12285 4194 12489 1 149.00000 418.400000
12285 4195 15969 1 149.00000 418.400000
12285 4196 13431 1 149.00000 418.400000
12286 4197 13450 1 149.00000 418.400000
12286 4198 15357 1 149.00000 418.400000
12286 4199 13376 1 149.00000 418.400000
12286 4200 15460 1 149.00000 418.400000
12287 4201 13998 1 149.00000 418.400000
12287 4202 15279 1 149.00000 418.400000
12287 4203 14828 1 149.00000 418.400000
12287 4204 15875 1 149.00000 418.400000
12288 4205 16025 1 149.00000 418.400000
12288 4206 13027 1 149.00000 418.400000
12288 4207 16847 1 149.00000 418.400000
15877 4208 20517 1 149.00000 418.400000
20517 4209 24366 1 149.00000 418.400000
12289 4210 12600 1 149.00000 418.400000
12289 4211 12885 1 149.00000 418.400000
12289 4212 13792 1 149.00000 418.400000
12290 4213 13505 1 149.00000 418.400000
12290 4214 14037 1 149.00000 418.400000
12290 4215 15871 1 149.00000 418.400000
12290 4216 13584 1 149.00000 418.400000
12291 4217 15645 1 149.00000 418.400000
12291 4218 16147 1 149.00000 418.400000
12291 4219 14064 1 149.00000 418.400000
12291 4220 13669 1 149.00000 418.400000
12292 4221 24441 1 149.00000 418.400000
12292 4222 12535 1 149.00000 418.400000
12292 4223 12921 1 149.00000 418.400000
12292 4224 21705 1 149.00000 418.400000
12293 4225 13380 1 149.00000 418.400000
12293 4226 13778 1 149.00000 418.400000
12293 4227 13253 1 149.00000 418.400000
12293 4228 13102 1 149.00000 418.400000
12294 4229 13334 1 149.00000 418.400000
12294 4230 14555 1 149.00000 418.400000
12294 4231 13414 1 149.00000 418.400000
12295 4232 12509 1 149.00000 418.400000
12295 4233 14245 1 149.00000 418.400000
12295 4234 14754 1 149.00000 418.400000
12295 4235 15258 1 149.00000 418.400000
20529 4236 22965 1 149.00000 418.400000
12296 4237 13016 1 149.00000 418.400000
12296 4238 24525 1 149.00000 418.400000
12296 4239 13027 1 149.00000 418.400000
12296 4240 15514 1 149.00000 418.400000
14645 4241 20541 1 149.00000 418.400000
13729 4242 20541 1 149.00000 418.400000
15583 4243 20541 1 149.00000 418.400000
12297 4244 12502 1 149.00000 418.400000
12297 4245 12342 1 149.00000 418.400000
12297 4246 15125 1 149.00000 418.400000
12297 4247 14505 1 149.00000 418.400000
12298 4248 15033 1 149.00000 418.400000
12298 4249 13868 1 149.00000 418.400000
12298 4250 13600 1 149.00000 418.400000
12298 4251 15969 1 149.00000 418.400000
12299 4252 14936 1 149.00000 418.400000
12299 4253 12848 1 149.00000 418.400000
12299 4254 13151 1 149.00000 418.400000
12300 4255 14786 1 149.00000 418.400000
12300 4256 13970 1 149.00000 418.400000
12300 4257 15923 1 149.00000 418.400000
12300 4258 15646 1 149.00000 418.400000
12301 4259 13318 1 149.00000 418.400000
12301 4260 13462 1 149.00000 418.400000
12301 4261 14414 1 149.00000 418.400000
12302 4262 12427 1 149.00000 418.400000
12302 4263 14629 1 149.00000 418.400000
12302 4264 16171 1 149.00000 418.400000
12302 4265 15567 1 149.00000 418.400000
12303 4266 14007 1 149.00000 418.400000
12303 4267 13033 1 149.00000 418.400000
12303 4268 14985 1 149.00000 418.400000
12303 4269 14679 1 149.00000 418.400000
12304 4270 16959 1 149.00000 418.400000
12304 4271 13560 1 149.00000 418.400000
12305 4272 12310 1 149.00000 418.400000
12305 4273 15099 1 149.00000 418.400000
12305 4274 14888 1 149.00000 418.400000
12305 4275 14961 1 149.00000 418.400000
12306 4276 14628 1 149.00000 418.400000
12306 4277 16087 1 149.00000 418.400000
12307 4278 22029 1 149.00000 418.400000
12307 4279 15498 1 149.00000 418.400000
12307 4280 13524 1 149.00000 418.400000
12307 4281 17141 1 149.00000 418.400000
12308 4282 15103 1 149.00000 418.400000
12308 4283 16056 1 149.00000 418.400000
12309 4284 14620 1 149.00000 418.400000
12358 4285 14620 1 149.00000 418.400000
12309 4286 12860 1 149.00000 418.400000
12310 4287 14598 1 149.00000 418.400000
12310 4288 12444 1 149.00000 418.400000
12310 4289 14241 1 149.00000 418.400000
12311 4290 16202 1 149.00000 418.400000
12311 4291 12760 1 149.00000 418.400000
12311 4292 24495 1 149.00000 418.400000
12311 4293 12866 1 149.00000 418.400000
12312 4294 13685 1 149.00000 418.400000
11375 4295 13547 1 149.00000 418.400000
12312 4296 14225 1 149.00000 418.400000
13094 4297 20553 1 149.00000 418.400000
15697 4298 20553 1 149.00000 418.400000
12313 4299 14102 1 149.00000 418.400000
12313 4300 16077 1 149.00000 418.400000
12313 4301 14623 1 149.00000 418.400000
12314 4302 12385 1 149.00000 418.400000
12385 4303 14572 1 149.00000 418.400000
12314 4304 17211 1 149.00000 418.400000
12315 4305 14836 1 149.00000 418.400000
12315 4306 13274 1 149.00000 418.400000
12315 4307 13323 1 149.00000 418.400000
12315 4308 15338 1 149.00000 418.400000
12316 4309 12348 1 149.00000 418.400000
12316 4310 14224 1 149.00000 418.400000
12316 4311 15213 1 149.00000 418.400000
12317 4312 12797 1 149.00000 418.400000
12317 4313 15829 1 149.00000 418.400000
12318 4314 14985 1 149.00000 418.400000
12318 4315 13733 1 149.00000 418.400000
12318 4316 15746 1 149.00000 418.400000
12319 4317 15749 1 149.00000 418.400000
12319 4318 23853 1 149.00000 418.400000
12319 4319 13454 1 149.00000 418.400000
13454 4320 16034 1 149.00000 418.400000
12320 4321 13295 1 149.00000 418.400000
12320 4322 12452 1 149.00000 418.400000
12320 4323 14441 1 149.00000 418.400000
12320 4324 13475 1 149.00000 418.400000
20565 4325 23181 1 149.00000 418.400000
16050 4326 20565 1 149.00000 418.400000
12321 4327 12607 1 149.00000 418.400000
12321 4328 14672 1 149.00000 418.400000
12321 4329 14433 1 149.00000 418.400000
12321 4330 23313 1 149.00000 418.400000
12322 4331 14661 1 149.00000 418.400000
12124 4332 12322 1 149.00000 418.400000
12322 4333 15437 1 149.00000 418.400000
12322 4334 14798 1 149.00000 418.400000
12323 4335 14123 1 149.00000 418.400000
12323 4336 13339 1 149.00000 418.400000
12323 4337 15845 1 149.00000 418.400000
16259 4338 20577 1 149.00000 418.400000
15641 4339 20577 1 149.00000 418.400000
20577 4340 23565 1 149.00000 418.400000
12324 4341 14884 1 149.00000 418.400000
12324 4342 16129 1 149.00000 418.400000
12324 4343 14503 1 149.00000 418.400000
12324 4344 14265 1 149.00000 418.400000
12325 4345 14580 1 149.00000 418.400000
12325 4346 13717 1 149.00000 418.400000
12325 4347 13947 1 149.00000 418.400000
12325 4348 15074 1 149.00000 418.400000
12326 4349 21933 1 149.00000 418.400000
12326 4350 14160 1 149.00000 418.400000
12326 4351 15087 1 149.00000 418.400000
12326 4352 14771 1 149.00000 418.400000
12327 4353 13231 1 149.00000 418.400000
12327 4354 12684 1 149.00000 418.400000
12327 4355 14463 1 149.00000 418.400000
12327 4356 14017 1 149.00000 418.400000
12328 4357 15683 1 149.00000 418.400000
12328 4358 15051 1 149.00000 418.400000
12328 4359 13118 1 149.00000 418.400000
12328 4360 15652 1 149.00000 418.400000
12329 4361 15557 1 149.00000 418.400000
12329 4362 13442 1 149.00000 418.400000
12329 4363 17911 1 149.00000 418.400000
12329 4364 12394 1 149.00000 418.400000
12330 4365 15948 1 149.00000 418.400000
12330 4366 13183 1 149.00000 418.400000
12330 4367 24252 1 149.00000 418.400000
12330 4368 12765 1 149.00000 418.400000
12331 4369 14880 1 149.00000 418.400000
12331 4370 14954 1 149.00000 418.400000
12331 4371 12376 1 149.00000 418.400000
12332 4372 15346 1 149.00000 418.400000
12332 4373 15806 1 149.00000 418.400000
13033 4374 23886 1 149.00000 418.400000
12333 4375 14070 1 149.00000 418.400000
12333 4376 13450 1 149.00000 418.400000
12334 4377 14574 1 149.00000 418.400000
12334 4378 17379 1 149.00000 418.400000
12334 4379 15399 1 149.00000 418.400000
12335 4380 15642 1 149.00000 418.400000
12335 4381 12506 1 149.00000 418.400000
12336 4382 13357 1 149.00000 418.400000
12336 4383 13321 1 149.00000 418.400000
12336 4384 24609 1 149.00000 418.400000
12337 4385 15860 1 149.00000 418.400000
12337 4386 15677 1 149.00000 418.400000
12337 4387 14668 1 149.00000 418.400000
12337 4388 14943 1 149.00000 418.400000
12338 4389 15499 1 149.00000 418.400000
12338 4390 14371 1 149.00000 418.400000
12339 4391 23709 1 149.00000 418.400000
12468 4392 23709 1 149.00000 418.400000
12339 4393 13023 1 149.00000 418.400000
12340 4394 15199 1 149.00000 418.400000
12340 4395 13806 1 149.00000 418.400000
12340 4396 14470 1 149.00000 418.400000
12340 4397 13901 1 149.00000 418.400000
15650 4398 20589 1 149.00000 418.400000
13835 4399 20589 1 149.00000 418.400000
14373 4400 20589 1 149.00000 418.400000
12341 4401 14610 1 149.00000 418.400000
12341 4402 13766 1 149.00000 418.400000
12341 4403 15452 1 149.00000 418.400000
12342 4404 15906 1 149.00000 418.400000
12342 4405 14531 1 149.00000 418.400000
12342 4406 13652 1 149.00000 418.400000
12343 4407 13373 1 149.00000 418.400000
12343 4408 14347 1 149.00000 418.400000
12343 4409 14632 1 149.00000 418.400000
12344 4410 15655 1 149.00000 418.400000
12344 4411 12962 1 149.00000 418.400000
12344 4412 13161 1 149.00000 418.400000
12345 4413 16099 1 149.00000 418.400000
12345 4414 16031 1 149.00000 418.400000
12345 4415 14515 1 149.00000 418.400000
12345 4416 15670 1 149.00000 418.400000
12346 4417 13317 1 149.00000 418.400000
12346 4418 20745 1 149.00000 418.400000
12058 4419 23349 1 149.00000 418.400000
12347 4420 12405 1 149.00000 418.400000
12347 4421 14139 1 149.00000 418.400000
12347 4422 12418 1 149.00000 418.400000
12348 4423 15785 1 149.00000 418.400000
12348 4424 14884 1 149.00000 418.400000
12349 4425 23877 1 149.00000 418.400000
12349 4426 14825 1 149.00000 418.400000
12349 4427 21489 1 149.00000 418.400000
12350 4428 14060 1 149.00000 418.400000
12350 4429 12743 1 149.00000 418.400000
12350 4430 12948 1 149.00000 418.400000
12350 4431 16211 1 149.00000 418.400000
20601 4432 24540 1 149.00000 418.400000
20601 4433 22413 1 149.00000 418.400000
14099 4434 20601 1 149.00000 418.400000
12943 4435 20613 1 149.00000 418.400000
12351 4436 13841 1 149.00000 418.400000
12351 4437 24414 1 149.00000 418.400000
12351 4438 15040 1 149.00000 418.400000
12351 4439 24234 1 149.00000 418.400000
12352 4440 14229 1 149.00000 418.400000
12352 4441 12895 1 149.00000 418.400000
12353 4442 13787 1 149.00000 418.400000
12353 4443 12858 1 149.00000 418.400000
11314 4444 12353 1 149.00000 418.400000
12353 4445 16077 1 149.00000 418.400000
12354 4446 24129 1 149.00000 418.400000
12354 4447 14940 1 149.00000 418.400000
12354 4448 16200 1 149.00000 418.400000
12354 4449 12750 1 149.00000 418.400000
12355 4450 15359 1 149.00000 418.400000
12355 4451 14971 1 149.00000 418.400000
12355 4452 24582 1 149.00000 418.400000
12356 4453 13797 1 149.00000 418.400000
12356 4454 21069 1 149.00000 418.400000
12356 4455 22581 1 149.00000 418.400000
12357 4456 14823 1 149.00000 418.400000
12357 4457 12793 1 149.00000 418.400000
12357 4458 12487 1 149.00000 418.400000
12358 4459 12659 1 149.00000 418.400000
12358 4460 13322 1 149.00000 418.400000
12359 4461 13901 1 149.00000 418.400000
12359 4462 12386 1 149.00000 418.400000
11432 4463 12359 1 149.00000 418.400000
12360 4464 12812 1 149.00000 418.400000
12360 4465 15744 1 149.00000 418.400000
12361 4466 12832 1 149.00000 418.400000
12361 4467 14098 1 149.00000 418.400000
12361 4468 12998 1 149.00000 418.400000
12362 4469 15740 1 149.00000 418.400000
12362 4470 14021 1 149.00000 418.400000
12362 4471 15037 1 149.00000 418.400000
12362 4472 14202 1 149.00000 418.400000
12363 4473 14235 1 149.00000 418.400000
12363 4474 14535 1 149.00000 418.400000
12363 4475 14151 1 149.00000 418.400000
15077 4476 20625 1 149.00000 418.400000
16174 4477 20625 1 149.00000 418.400000
15739 4478 20625 1 149.00000 418.400000
20637 4479 24213 1 149.00000 418.400000
14089 4480 15781 1 149.00000 418.400000
15781 4481 20637 1 149.00000 418.400000
12364 4482 13359 1 149.00000 418.400000
12364 4483 13502 1 149.00000 418.400000
12364 4484 14045 1 149.00000 418.400000
12364 4485 15990 1 149.00000 418.400000
12365 4486 15125 1 149.00000 418.400000
12365 4487 14815 1 149.00000 418.400000
12365 4488 13363 1 149.00000 418.400000
12365 4489 16126 1 149.00000 418.400000
12366 4490 13846 1 149.00000 418.400000
12366 4491 15771 1 149.00000 418.400000
12366 4492 12797 1 149.00000 418.400000
12366 4493 14288 1 149.00000 418.400000
12367 4494 14717 1 149.00000 418.400000
14291 4495 15591 1 149.00000 418.400000
12367 4496 14291 1 149.00000 418.400000
12367 4497 24348 1 149.00000 418.400000
12368 4498 13175 1 149.00000 418.400000
12368 4499 12874 1 149.00000 418.400000
12368 4500 15194 1 149.00000 418.400000
12369 4501 24330 1 149.00000 418.400000
12369 4502 16116 1 149.00000 418.400000
12369 4503 16057 1 149.00000 418.400000
12370 4504 15607 1 149.00000 418.400000
12370 4505 15748 1 149.00000 418.400000
12370 4506 14664 1 149.00000 418.400000
12371 4507 15818 1 149.00000 418.400000
12371 4508 16030 1 149.00000 418.400000
14398 4509 20661 1 149.00000 418.400000
20661 4510 24276 1 149.00000 418.400000
20673 4511 22149 1 149.00000 418.400000
13735 4512 20673 1 149.00000 418.400000
20673 4513 22101 1 149.00000 418.400000
13214 4514 22509 1 149.00000 418.400000
20685 4515 23769 1 149.00000 418.400000
20685 4516 23037 1 149.00000 418.400000
20685 4517 24501 1 149.00000 418.400000
12372 4518 15301 1 149.00000 418.400000
12372 4519 24540 1 149.00000 418.400000
12372 4520 16080 1 149.00000 418.400000
12372 4521 12584 1 149.00000 418.400000
12373 4522 14644 1 149.00000 418.400000
12373 4523 14891 1 149.00000 418.400000
12374 4524 15086 1 149.00000 418.400000
12374 4525 13945 1 149.00000 418.400000
12375 4526 13112 1 149.00000 418.400000
12375 4527 15376 1 149.00000 418.400000
11484 4528 12375 1 149.00000 418.400000
12375 4529 15485 1 149.00000 418.400000
20697 4530 24552 1 149.00000 418.400000
12376 4531 15982 1 149.00000 418.400000
12376 4532 16048 1 149.00000 418.400000
11781 4533 12376 1 149.00000 418.400000
20709 4534 24171 1 149.00000 418.400000
14027 4535 20709 1 149.00000 418.400000
12377 4536 14831 1 149.00000 418.400000
12377 4537 14714 1 149.00000 418.400000
12377 4538 15774 1 149.00000 418.400000
12378 4539 23991 1 149.00000 418.400000
12379 4540 14300 1 149.00000 418.400000
12379 4541 15484 1 149.00000 418.400000
12379 4542 14762 1 149.00000 418.400000
12380 4543 13688 1 149.00000 418.400000
12380 4544 13744 1 149.00000 418.400000
12380 4545 12530 1 149.00000 418.400000
12381 4546 13989 1 149.00000 418.400000
12381 4547 13001 1 149.00000 418.400000
12381 4548 13942 1 149.00000 418.400000
12381 4549 15995 1 149.00000 418.400000
12382 4550 24297 1 149.00000 418.400000
12382 4551 14149 1 149.00000 418.400000
12382 4552 14906 1 149.00000 418.400000
23205 4553 23916 1 149.00000 418.400000
12383 4554 22053 1 149.00000 418.400000
12383 4555 16008 1 149.00000 418.400000
12383 4556 23916 1 149.00000 418.400000
12384 4557 12435 1 149.00000 418.400000
12384 4558 15775 1 149.00000 418.400000
12384 4559 13610 1 149.00000 418.400000
12314 4560 16090 1 149.00000 418.400000
12385 4561 16106 1 149.00000 418.400000
12385 4562 14474 1 149.00000 418.400000
12386 4563 13895 1 149.00000 418.400000
12386 4564 13034 1 149.00000 418.400000
12387 4565 24285 1 149.00000 418.400000
12387 4566 15116 1 149.00000 418.400000
12388 4567 15176 1 149.00000 418.400000
12389 4568 13976 1 149.00000 418.400000
12389 4569 13070 1 149.00000 418.400000
12389 4570 16160 1 149.00000 418.400000
12389 4571 12522 1 149.00000 418.400000
12390 4572 14685 1 149.00000 418.400000
12390 4573 15362 1 149.00000 418.400000
12390 4574 14763 1 149.00000 418.400000
12391 4575 14886 1 149.00000 418.400000
12391 4576 22509 1 149.00000 418.400000
12391 4577 23349 1 149.00000 418.400000
12391 4578 12888 1 149.00000 418.400000
12392 4579 13301 1 149.00000 418.400000
12392 4580 14993 1 149.00000 418.400000
12392 4581 14352 1 149.00000 418.400000
12392 4582 15119 1 149.00000 418.400000
12393 4583 13042 1 149.00000 418.400000
13042 4584 24186 1 149.00000 418.400000
12394 4585 15696 1 149.00000 418.400000
14387 4586 20721 1 149.00000 418.400000
20721 4587 24734 1 149.00000 418.400000
14130 4588 20721 1 149.00000 418.400000
15027 4589 21513 1 149.00000 418.400000
12822 4590 15027 1 149.00000 418.400000
12395 4591 15027 1 149.00000 418.400000
13460 4592 15027 1 149.00000 418.400000
14374 4593 14796 1 149.00000 418.400000
12396 4594 14642 1 149.00000 418.400000
12396 4595 14796 1 149.00000 418.400000
12397 4596 12699 1 149.00000 418.400000
12397 4597 15233 1 149.00000 418.400000
12397 4598 15159 1 149.00000 418.400000
12398 4599 13604 1 149.00000 418.400000
12398 4600 12504 1 149.00000 418.400000
12398 4601 14886 1 149.00000 418.400000
12398 4602 14863 1 149.00000 418.400000
15847 4603 20733 1 149.00000 418.400000
20733 4604 24513 1 149.00000 418.400000
12399 4605 15598 1 149.00000 418.400000
12399 4606 12447 1 149.00000 418.400000
15896 4607 22917 1 149.00000 418.400000
15157 4608 22917 1 149.00000 418.400000
12400 4609 13126 1 149.00000 418.400000
12400 4610 15069 1 149.00000 418.400000
12400 4611 15336 1 149.00000 418.400000
12400 4612 15375 1 149.00000 418.400000
12401 4613 15593 1 149.00000 418.400000
12401 4614 13937 1 149.00000 418.400000
12401 4615 14596 1 149.00000 418.400000
12401 4616 15073 1 149.00000 418.400000
12402 4617 12488 1 149.00000 418.400000
12402 4618 14575 1 149.00000 418.400000
12402 4619 15119 1 149.00000 418.400000
12403 4620 15418 1 149.00000 418.400000
12403 4621 13210 1 149.00000 418.400000
12403 4622 14133 1 149.00000 418.400000
20745 4623 24105 1 149.00000 418.400000
11341 4624 20745 1 149.00000 418.400000
12279 4625 14083 1 149.00000 418.400000
12404 4626 14467 1 149.00000 418.400000
12404 4627 12834 1 149.00000 418.400000
12405 4628 14929 1 149.00000 418.400000
12405 4629 13527 1 149.00000 418.400000
12406 4630 13157 1 149.00000 418.400000
12406 4631 14910 1 149.00000 418.400000
12406 4632 12878 1 149.00000 418.400000
12406 4633 14297 1 149.00000 418.400000
12407 4634 13532 1 149.00000 418.400000
12407 4635 15434 1 149.00000 418.400000
16133 4636 20757 1 149.00000 418.400000
13225 4637 20757 1 149.00000 418.400000
12744 4638 20757 1 149.00000 418.400000
11347 4639 15976 1 149.00000 418.400000
11347 4640 13612 1 149.00000 418.400000
12409 4641 15753 1 149.00000 418.400000
12409 4642 15015 1 149.00000 418.400000
12409 4643 14644 1 149.00000 418.400000
12409 4644 13265 1 149.00000 418.400000
12410 4645 23325 1 149.00000 418.400000
12410 4646 15602 1 149.00000 418.400000
12410 4647 16182 1 149.00000 418.400000
12411 4648 20781 1 149.00000 418.400000
12411 4649 12424 1 149.00000 418.400000
12411 4650 16287 1 149.00000 418.400000
12412 4651 15777 1 149.00000 418.400000
12412 4652 16034 1 149.00000 418.400000
12412 4653 12814 1 149.00000 418.400000
12413 4654 12605 1 149.00000 418.400000
12413 4655 13762 1 149.00000 418.400000
12413 4656 13024 1 149.00000 418.400000
12413 4657 15388 1 149.00000 418.400000
12414 4658 13414 1 149.00000 418.400000
12414 4659 14819 1 149.00000 418.400000
12415 4660 16161 1 149.00000 418.400000
12415 4661 16201 1 149.00000 418.400000
12415 4662 15516 1 149.00000 418.400000
12415 4663 12823 1 149.00000 418.400000
12416 4664 13577 1 149.00000 418.400000
12416 4665 15285 1 149.00000 418.400000
12416 4666 15058 1 149.00000 418.400000
12417 4667 16120 1 149.00000 418.400000
12417 4668 15886 1 149.00000 418.400000
12417 4669 15087 1 149.00000 418.400000
12417 4670 12758 1 149.00000 418.400000
12418 4671 14540 1 149.00000 418.400000
12418 4672 14047 1 149.00000 418.400000
12418 4673 15354 1 149.00000 418.400000
12419 4674 23433 1 149.00000 418.400000
12419 4675 13325 1 149.00000 418.400000
13648 4676 14980 1 149.00000 418.400000
12419 4677 14980 1 149.00000 418.400000
12420 4678 12630 1 149.00000 418.400000
12420 4679 13310 1 149.00000 418.400000
12420 4680 15829 1 149.00000 418.400000
12420 4681 15822 1 149.00000 418.400000
12421 4682 15925 1 149.00000 418.400000
12421 4683 15996 1 149.00000 418.400000
12422 4684 13927 1 149.00000 418.400000
12422 4685 12867 1 149.00000 418.400000
12422 4686 14073 1 149.00000 418.400000
12422 4687 12828 1 149.00000 418.400000
12423 4688 24006 1 149.00000 418.400000
12423 4689 23943 1 149.00000 418.400000
12423 4690 12526 1 149.00000 418.400000
20769 4691 23733 1 149.00000 418.400000
20769 4692 22677 1 149.00000 418.400000
14662 4693 20769 1 149.00000 418.400000
12424 4694 15445 1 149.00000 418.400000
12424 4695 15751 1 149.00000 418.400000
12425 4696 13011 1 149.00000 418.400000
12425 4697 15473 1 149.00000 418.400000
12426 4698 14847 1 149.00000 418.400000
12426 4699 15124 1 149.00000 418.400000
13689 4700 20781 1 149.00000 418.400000
20781 4701 23361 1 149.00000 418.400000
12427 4702 15193 1 149.00000 418.400000
12427 4703 13029 1 149.00000 418.400000
12427 4704 13890 1 149.00000 418.400000
12428 4705 13526 1 149.00000 418.400000
12428 4706 14848 1 149.00000 418.400000
12428 4707 23061 1 149.00000 418.400000
12429 4708 13534 1 149.00000 418.400000
12429 4709 21177 1 149.00000 418.400000
12429 4710 14729 1 149.00000 418.400000
12430 4711 14313 1 149.00000 418.400000
12430 4712 13797 1 149.00000 418.400000
12430 4713 12445 1 149.00000 418.400000
12430 4714 14703 1 149.00000 418.400000
12431 4715 12828 1 149.00000 418.400000
12431 4716 14143 1 149.00000 418.400000
12432 4717 12926 1 149.00000 418.400000
12432 4718 15926 1 149.00000 418.400000
12432 4719 15249 1 149.00000 418.400000
12432 4720 13561 1 149.00000 418.400000
12433 4721 13213 1 149.00000 418.400000
12433 4722 12477 1 149.00000 418.400000
12433 4723 12442 1 149.00000 418.400000
12433 4724 13360 1 149.00000 418.400000
12434 4725 15760 1 149.00000 418.400000
12434 4726 16081 1 149.00000 418.400000
12434 4727 15556 1 149.00000 418.400000
12434 4728 14516 1 149.00000 418.400000
12435 4729 13017 1 149.00000 418.400000
12435 4730 12945 1 149.00000 418.400000
12435 4731 13891 1 149.00000 418.400000
12436 4732 13999 1 149.00000 418.400000
12436 4733 24615 1 149.00000 418.400000
12436 4734 12543 1 149.00000 418.400000
12436 4735 24480 1 149.00000 418.400000
13812 4736 20793 1 149.00000 418.400000
20793 4737 23001 1 149.00000 418.400000
12437 4738 14444 1 149.00000 418.400000
12437 4739 15303 1 149.00000 418.400000
12437 4740 15780 1 149.00000 418.400000
12437 4741 12979 1 149.00000 418.400000
12438 4742 13870 1 149.00000 418.400000
12438 4743 13636 1 149.00000 418.400000
12438 4744 12493 1 149.00000 418.400000
12439 4745 15795 1 149.00000 418.400000
12439 4746 12863 1 149.00000 418.400000
12440 4747 14159 1 149.00000 418.400000
12440 4748 15825 1 149.00000 418.400000
12440 4749 15123 1 149.00000 418.400000
12441 4750 12659 1 149.00000 418.400000
12441 4751 13394 1 149.00000 418.400000
12442 4752 13388 1 149.00000 418.400000
12442 4753 14808 1 149.00000 418.400000
12442 4754 15711 1 149.00000 418.400000
13674 4755 15711 1 149.00000 418.400000
12443 4756 12649 1 149.00000 418.400000
12443 4757 15655 1 149.00000 418.400000
12443 4758 14316 1 149.00000 418.400000
12444 4759 15622 1 149.00000 418.400000
13607 4760 14046 1 149.00000 418.400000
12444 4761 14046 1 149.00000 418.400000
12445 4762 13410 1 149.00000 418.400000
12445 4763 15752 1 149.00000 418.400000
12445 4764 12702 1 149.00000 418.400000
12446 4765 14713 1 149.00000 418.400000
12447 4766 14813 1 149.00000 418.400000
12447 4767 15031 1 149.00000 418.400000
12447 4768 15056 1 149.00000 418.400000
12448 4769 13827 1 149.00000 418.400000
12448 4770 14029 1 149.00000 418.400000
20805 4771 22857 1 149.00000 418.400000
13713 4772 20805 1 149.00000 418.400000
12449 4773 23955 1 149.00000 418.400000
12449 4774 12669 1 149.00000 418.400000
12449 4775 12892 1 149.00000 418.400000
12449 4776 23976 1 149.00000 418.400000
12450 4777 22197 1 149.00000 418.400000
12450 4778 13060 1 149.00000 418.400000
12450 4779 24531 1 149.00000 418.400000
12450 4780 12498 1 149.00000 418.400000
12451 4781 15352 1 149.00000 418.400000
12451 4782 14914 1 149.00000 418.400000
13483 4783 15352 1 149.00000 418.400000
12452 4784 15756 1 149.00000 418.400000
12452 4785 22713 1 149.00000 418.400000
12453 4786 15981 1 149.00000 418.400000
12453 4787 12708 1 149.00000 418.400000
12453 4788 14123 1 149.00000 418.400000
12176 4789 20817 1 149.00000 418.400000
12454 4790 24468 1 149.00000 418.400000
12454 4791 13343 1 149.00000 418.400000
12454 4792 20925 1 149.00000 418.400000
12455 4793 13587 1 149.00000 418.400000
12455 4794 12973 1 149.00000 418.400000
20829 4795 21945 1 149.00000 418.400000
12456 4796 14701 1 149.00000 418.400000
12456 4797 13468 1 149.00000 418.400000
12456 4798 15018 1 149.00000 418.400000
12456 4799 14565 1 149.00000 418.400000
15728 4800 20841 1 149.00000 418.400000
12457 4801 12863 1 149.00000 418.400000
12863 4802 15872 1 149.00000 418.400000
12457 4803 14701 1 149.00000 418.400000
12458 4804 15536 1 149.00000 418.400000
12458 4805 14500 1 149.00000 418.400000
11892 4806 12781 1 149.00000 418.400000
13324 4807 20853 1 149.00000 418.400000
14381 4808 20853 1 149.00000 418.400000
20853 4809 24117 1 149.00000 418.400000
13650 4810 20865 1 149.00000 418.400000
13650 4811 17519 1 149.00000 418.400000
15068 4812 20865 1 149.00000 418.400000
14439 4813 20877 1 149.00000 418.400000
20877 4814 22449 1 149.00000 418.400000
14934 4815 20889 1 149.00000 418.400000
14464 4816 20889 1 149.00000 418.400000
20901 4817 23133 1 149.00000 418.400000
12459 4818 15574 1 149.00000 418.400000
12459 4819 13229 1 149.00000 418.400000
12459 4820 15044 1 149.00000 418.400000
12460 4821 12567 1 149.00000 418.400000
12460 4822 13678 1 149.00000 418.400000
12460 4823 13770 1 149.00000 418.400000
12460 4824 14686 1 149.00000 418.400000
15490 4825 20913 1 149.00000 418.400000
15455 4826 20913 1 149.00000 418.400000
14108 4827 20913 1 149.00000 418.400000
12461 4828 13745 1 149.00000 418.400000
12461 4829 12748 1 149.00000 418.400000
12461 4830 15177 1 149.00000 418.400000
12462 4831 15945 1 149.00000 418.400000
12462 4832 14515 1 149.00000 418.400000
12462 4833 15372 1 149.00000 418.400000
12462 4834 12772 1 149.00000 418.400000
12463 4835 14637 1 149.00000 418.400000
12463 4836 16173 1 149.00000 418.400000
12463 4837 13041 1 149.00000 418.400000
12464 4838 13645 1 149.00000 418.400000
12464 4839 13035 1 149.00000 418.400000
12464 4840 14568 1 149.00000 418.400000
12465 4841 13604 1 149.00000 418.400000
12465 4842 14561 1 149.00000 418.400000
12465 4843 14229 1 149.00000 418.400000
12465 4844 12941 1 149.00000 418.400000
12466 4845 12846 1 149.00000 418.400000
12466 4846 13456 1 149.00000 418.400000
12466 4847 14481 1 149.00000 418.400000
15551 4848 24342 1 149.00000 418.400000
15551 4849 20937 1 149.00000 418.400000
12467 4850 14298 1 149.00000 418.400000
12467 4851 13725 1 149.00000 418.400000
12467 4852 15662 1 149.00000 418.400000
12468 4853 24414 1 149.00000 418.400000
12468 4854 14154 1 149.00000 418.400000
12468 4855 14617 1 149.00000 418.400000
12469 4856 15596 1 149.00000 418.400000
12469 4857 15506 1 149.00000 418.400000
12470 4858 15810 1 149.00000 418.400000
12470 4859 13104 1 149.00000 418.400000
11914 4860 14500 1 149.00000 418.400000
13026 4861 20949 1 149.00000 418.400000
12943 4862 20949 1 149.00000 418.400000
12471 4863 15614 1 149.00000 418.400000
12471 4864 15892 1 149.00000 418.400000
12471 4865 14328 1 149.00000 418.400000
12471 4866 16210 1 149.00000 418.400000
12472 4867 14619 1 149.00000 418.400000
12472 4868 14892 1 149.00000 418.400000
12472 4869 14876 1 149.00000 418.400000
20961 4870 22533 1 149.00000 418.400000
14578 4871 20961 1 149.00000 418.400000
12473 4872 14712 1 149.00000 418.400000
12474 4873 13478 1 149.00000 418.400000
12474 4874 14716 1 149.00000 418.400000
12474 4875 14026 1 149.00000 418.400000
12475 4876 12524 1 149.00000 418.400000
12475 4877 15241 1 149.00000 418.400000
12475 4878 13189 1 149.00000 418.400000
15419 4879 20973 1 149.00000 418.400000
12476 4880 13320 1 149.00000 418.400000
12476 4881 15915 1 149.00000 418.400000
12476 4882 13290 1 149.00000 418.400000
12477 4883 13474 1 149.00000 418.400000
12477 4884 13565 1 149.00000 418.400000
12477 4885 14344 1 149.00000 418.400000
14653 4886 20985 1 149.00000 418.400000
12478 4887 16178 1 149.00000 418.400000
12478 4888 12804 1 149.00000 418.400000
12478 4889 15596 1 149.00000 418.400000
12478 4890 14579 1 149.00000 418.400000
12479 4891 12648 1 149.00000 418.400000
12479 4892 14143 1 149.00000 418.400000
12479 4893 14073 1 149.00000 418.400000
20997 4894 23385 1 149.00000 418.400000
13121 4895 21009 1 149.00000 418.400000
21009 4896 23169 1 149.00000 418.400000
12480 4897 15132 1 149.00000 418.400000
12480 4898 13592 1 149.00000 418.400000
13924 4899 15672 1 149.00000 418.400000
13924 4900 21021 1 149.00000 418.400000
12614 4901 21021 1 149.00000 418.400000
12481 4902 12948 1 149.00000 418.400000
12481 4903 14692 1 149.00000 418.400000
12481 4904 14049 1 149.00000 418.400000
12481 4905 13018 1 149.00000 418.400000
12482 4906 13805 1 149.00000 418.400000
12482 4907 13516 1 149.00000 418.400000
12482 4908 12940 1 149.00000 418.400000
12482 4909 15062 1 149.00000 418.400000
12483 4910 15976 1 149.00000 418.400000
12483 4911 15938 1 149.00000 418.400000
12483 4912 13139 1 149.00000 418.400000
12483 4913 14515 1 149.00000 418.400000
12484 4914 14763 1 149.00000 418.400000
12484 4915 13374 1 149.00000 418.400000
12484 4916 15973 1 149.00000 418.400000
12484 4917 15129 1 149.00000 418.400000
12485 4918 13959 1 149.00000 418.400000
12485 4919 14982 1 149.00000 418.400000
12485 4920 13277 1 149.00000 418.400000
12485 4921 15194 1 149.00000 418.400000
13140 4922 21033 1 149.00000 418.400000
12486 4923 14820 1 149.00000 418.400000
12486 4924 12622 1 149.00000 418.400000
12486 4925 14228 1 149.00000 418.400000
12487 4926 13470 1 149.00000 418.400000
12487 4927 12683 1 149.00000 418.400000
12487 4928 12724 1 149.00000 418.400000
12488 4929 24336 1 149.00000 418.400000
12488 4930 22029 1 149.00000 418.400000
12489 4931 16075 1 149.00000 418.400000
13916 4932 21045 1 149.00000 418.400000
12490 4933 13457 1 149.00000 418.400000
12490 4934 14497 1 149.00000 418.400000
12490 4935 14219 1 149.00000 418.400000
12490 4936 15586 1 149.00000 418.400000
14669 4937 22185 1 149.00000 418.400000
21057 4938 22485 1 149.00000 418.400000
14669 4939 21057 1 149.00000 418.400000
15564 4940 15850 1 149.00000 418.400000
12491 4941 12844 1 149.00000 418.400000
12491 4942 15850 1 149.00000 418.400000
12491 4943 14429 1 149.00000 418.400000
12492 4944 15320 1 149.00000 418.400000
12492 4945 13847 1 149.00000 418.400000
12492 4946 14620 1 149.00000 418.400000
12493 4947 12811 1 149.00000 418.400000
12493 4948 15938 1 149.00000 418.400000
12493 4949 13087 1 149.00000 418.400000
12494 4950 15225 1 149.00000 418.400000
12494 4951 15187 1 149.00000 418.400000
12494 4952 24042 1 149.00000 418.400000
12494 4953 15009 1 149.00000 418.400000
12495 4954 14827 1 149.00000 418.400000
12495 4955 24423 1 149.00000 418.400000
12495 4956 21393 1 149.00000 418.400000
12496 4957 15216 1 149.00000 418.400000
12496 4958 14789 1 149.00000 418.400000
12496 4959 13340 1 149.00000 418.400000
12496 4960 13966 1 149.00000 418.400000
15779 4961 21069 1 149.00000 418.400000
12497 4962 14190 1 149.00000 418.400000
12497 4963 23901 1 149.00000 418.400000
12498 4964 13923 1 149.00000 418.400000
12498 4965 15583 1 149.00000 418.400000
12498 4966 14700 1 149.00000 418.400000
12499 4967 15588 1 149.00000 418.400000
12499 4968 15393 1 149.00000 418.400000
12500 4969 15861 1 149.00000 418.400000
12500 4970 15732 1 149.00000 418.400000
12500 4971 21477 1 149.00000 418.400000
12501 4972 14977 1 149.00000 418.400000
12501 4973 12910 1 149.00000 418.400000
12501 4974 13978 1 149.00000 418.400000
12501 4975 14850 1 149.00000 418.400000
12502 4976 15991 1 149.00000 418.400000
12502 4977 16102 1 149.00000 418.400000
12502 4978 15961 1 149.00000 418.400000
12503 4979 15405 1 149.00000 418.400000
12503 4980 13938 1 149.00000 418.400000
16567 4981 21081 1 149.00000 418.400000
13220 4982 21081 1 149.00000 418.400000
12504 4983 14551 1 149.00000 418.400000
12504 4984 13838 1 149.00000 418.400000
12504 4985 13296 1 149.00000 418.400000
12505 4986 13228 1 149.00000 418.400000
12505 4987 13274 1 149.00000 418.400000
12505 4988 15810 1 149.00000 418.400000
12506 4989 14045 1 149.00000 418.400000
15659 4990 21093 1 149.00000 418.400000
16511 4991 21093 1 149.00000 418.400000
12507 4992 15937 1 149.00000 418.400000
12507 4993 13749 1 149.00000 418.400000
21105 4994 24048 1 149.00000 418.400000
13098 4995 21105 1 149.00000 418.400000
14270 4996 21117 1 149.00000 418.400000
12540 4997 21117 1 149.00000 418.400000
12508 4998 13687 1 149.00000 418.400000
12508 4999 14103 1 149.00000 418.400000
12508 5000 16357 1 149.00000 418.400000
12508 5001 18163 1 149.00000 418.400000
12509 5002 13481 1 149.00000 418.400000
12509 5003 14938 1 149.00000 418.400000
12509 5004 13228 1 149.00000 418.400000
12510 5005 13911 1 149.00000 418.400000
12510 5006 13644 1 149.00000 418.400000
12510 5007 12950 1 149.00000 418.400000
12511 5008 12564 1 149.00000 418.400000
12511 5009 14280 1 149.00000 418.400000
12512 5010 13455 1 149.00000 418.400000
13455 5011 14942 1 149.00000 418.400000
15931 5012 16020 1 149.00000 418.400000
12512 5013 15931 1 149.00000 418.400000
12513 5014 13970 1 149.00000 418.400000
12513 5015 16032 1 149.00000 418.400000
12513 5016 14918 1 149.00000 418.400000
12513 5017 14654 1 149.00000 418.400000
12514 5018 12807 1 149.00000 418.400000
12514 5019 21369 1 149.00000 418.400000
12514 5020 24051 1 149.00000 418.400000
12515 5021 14705 1 149.00000 418.400000
12516 5022 15028 1 149.00000 418.400000
12516 5023 13548 1 149.00000 418.400000
12516 5024 16128 1 149.00000 418.400000
12516 5025 12952 1 149.00000 418.400000
12517 5026 14210 1 149.00000 418.400000
12517 5027 12944 1 149.00000 418.400000
13422 5028 13854 1 149.00000 418.400000
12518 5029 13422 1 149.00000 418.400000
16315 5030 21129 1 149.00000 418.400000
13365 5031 21129 1 149.00000 418.400000
12519 5032 14584 1 149.00000 418.400000
12519 5033 13347 1 149.00000 418.400000
12519 5034 13664 1 149.00000 418.400000
12519 5035 14116 1 149.00000 418.400000
12520 5036 15290 1 149.00000 418.400000
12520 5037 14036 1 149.00000 418.400000
14797 5038 21141 1 149.00000 418.400000
12521 5039 22521 1 149.00000 418.400000
12521 5040 13769 1 149.00000 418.400000
12521 5041 22773 1 149.00000 418.400000
12521 5042 14067 1 149.00000 418.400000
21153 5043 24510 1 149.00000 418.400000
14651 5044 21153 1 149.00000 418.400000
12522 5045 15906 1 149.00000 418.400000
12522 5046 13705 1 149.00000 418.400000
12522 5047 13417 1 149.00000 418.400000
12523 5048 15181 1 149.00000 418.400000
15487 5049 16163 1 149.00000 418.400000
12523 5050 16163 1 149.00000 418.400000
12523 5051 13074 1 149.00000 418.400000
12524 5052 13503 1 149.00000 418.400000
12524 5053 13957 1 149.00000 418.400000
17281 5054 21165 1 149.00000 418.400000
13329 5055 21165 1 149.00000 418.400000
12525 5056 13261 1 149.00000 418.400000
12525 5057 15951 1 149.00000 418.400000
12525 5058 15666 1 149.00000 418.400000
15001 5059 15952 1 149.00000 418.400000
12526 5060 15148 1 149.00000 418.400000
12526 5061 15001 1 149.00000 418.400000
12527 5062 12771 1 149.00000 418.400000
12527 5063 12693 1 149.00000 418.400000
12527 5064 15854 1 149.00000 418.400000
12528 5065 14337 1 149.00000 418.400000
12528 5066 13757 1 149.00000 418.400000
12528 5067 12949 1 149.00000 418.400000
12529 5068 13773 1 149.00000 418.400000
12529 5069 17421 1 149.00000 418.400000
12529 5070 13936 1 149.00000 418.400000
12530 5071 16213 1 149.00000 418.400000
12530 5072 15517 1 149.00000 418.400000
12530 5073 13196 1 149.00000 418.400000
12531 5074 13675 1 149.00000 418.400000
12531 5075 15175 1 149.00000 418.400000
12531 5076 14116 1 149.00000 418.400000
12531 5077 15168 1 149.00000 418.400000
12532 5078 14031 1 149.00000 418.400000
12532 5079 14272 1 149.00000 418.400000
12532 5080 15671 1 149.00000 418.400000
12533 5081 16197 1 149.00000 418.400000
12533 5082 15377 1 149.00000 418.400000
12534 5083 13953 1 149.00000 418.400000
12534 5084 13945 1 149.00000 418.400000
12535 5085 15149 1 149.00000 418.400000
12535 5086 13385 1 149.00000 418.400000
12535 5087 14663 1 149.00000 418.400000
12536 5088 13154 1 149.00000 418.400000
12536 5089 15573 1 149.00000 418.400000
12536 5090 15198 1 149.00000 418.400000
12536 5091 24754 1 149.00000 418.400000
12537 5092 24366 1 149.00000 418.400000
12537 5093 22473 1 149.00000 418.400000
12537 5094 13531 1 149.00000 418.400000
12537 5095 22725 1 149.00000 418.400000
12538 5096 15676 1 149.00000 418.400000
12538 5097 14076 1 149.00000 418.400000
12538 5098 14135 1 149.00000 418.400000
12538 5099 14406 1 149.00000 418.400000
12539 5100 15675 1 149.00000 418.400000
12539 5101 13802 1 149.00000 418.400000
12539 5102 14395 1 149.00000 418.400000
12539 5103 16001 1 149.00000 418.400000
12953 5104 21177 1 149.00000 418.400000
21177 5105 21681 1 149.00000 418.400000
12540 5106 16201 1 149.00000 418.400000
11681 5107 12540 1 149.00000 418.400000
12541 5108 15078 1 149.00000 418.400000
12541 5109 14702 1 149.00000 418.400000
12541 5110 13884 1 149.00000 418.400000
12541 5111 15183 1 149.00000 418.400000
12542 5112 12820 1 149.00000 418.400000
12542 5113 12925 1 149.00000 418.400000
12542 5114 13363 1 149.00000 418.400000
12925 5115 13417 1 149.00000 418.400000
12543 5116 15849 1 149.00000 418.400000
12543 5117 16190 1 149.00000 418.400000
12544 5118 14905 1 149.00000 418.400000
12544 5119 14814 1 149.00000 418.400000
12544 5120 13545 1 149.00000 418.400000
12544 5121 13476 1 149.00000 418.400000
12545 5122 14252 1 149.00000 418.400000
12545 5123 12546 1 149.00000 418.400000
12545 5124 12632 1 149.00000 418.400000
12546 5125 14129 1 149.00000 418.400000
12546 5126 15921 1 149.00000 418.400000
12547 5127 14234 1 149.00000 418.400000
12547 5128 15134 1 149.00000 418.400000
12547 5129 15660 1 149.00000 418.400000
21189 5130 23907 1 149.00000 418.400000
13740 5131 21189 1 149.00000 418.400000
13021 5132 21189 1 149.00000 418.400000
12548 5133 23625 1 149.00000 418.400000
12548 5134 21285 1 149.00000 418.400000
14357 5135 21201 1 149.00000 418.400000
13188 5136 21201 1 149.00000 418.400000
12549 5137 14855 1 149.00000 418.400000
11740 5138 12549 1 149.00000 418.400000
12549 5139 15206 1 149.00000 418.400000
12549 5140 13540 1 149.00000 418.400000
17463 5141 21213 1 149.00000 418.400000
16133 5142 21213 1 149.00000 418.400000
14951 5143 21213 1 149.00000 418.400000
12550 5144 13487 1 149.00000 418.400000
12550 5145 15294 1 149.00000 418.400000
12550 5146 22581 1 149.00000 418.400000
12550 5147 14703 1 149.00000 418.400000
12551 5148 14893 1 149.00000 418.400000
12551 5149 13593 1 149.00000 418.400000
12551 5150 13993 1 149.00000 418.400000
12552 5151 13650 1 149.00000 418.400000
12552 5152 14384 1 149.00000 418.400000
12552 5153 15356 1 149.00000 418.400000
12553 5154 13961 1 149.00000 418.400000
12553 5155 12614 1 149.00000 418.400000
12553 5156 12665 1 149.00000 418.400000
11246 5157 12554 1 149.00000 418.400000
12554 5158 12605 1 149.00000 418.400000
12554 5159 12874 1 149.00000 418.400000
12554 5160 13950 1 149.00000 418.400000
11504 5161 16024 1 149.00000 418.400000
12555 5162 16024 1 149.00000 418.400000
13140 5163 21237 1 149.00000 418.400000
14647 5164 21237 1 149.00000 418.400000
12556 5165 15202 1 149.00000 418.400000
12556 5166 12915 1 149.00000 418.400000
12557 5167 15900 1 149.00000 418.400000
12557 5168 16100 1 149.00000 418.400000
12558 5169 14266 1 149.00000 418.400000
12558 5170 15322 1 149.00000 418.400000
12559 5171 21333 1 149.00000 418.400000
21249 5172 21561 1 149.00000 418.400000
17659 5173 21261 1 149.00000 418.400000
15055 5174 21261 1 149.00000 418.400000
12560 5175 16623 1 149.00000 418.400000
12560 5176 15339 1 149.00000 418.400000
12560 5177 15578 1 149.00000 418.400000
12560 5178 18897 1 149.00000 418.400000
12561 5179 14635 1 149.00000 418.400000
12561 5180 14927 1 149.00000 418.400000
12561 5181 12625 1 149.00000 418.400000
12562 5182 17183 1 149.00000 418.400000
12562 5183 23049 1 149.00000 418.400000
12562 5184 14944 1 149.00000 418.400000
12563 5185 15135 1 149.00000 418.400000
12563 5186 15856 1 149.00000 418.400000
12563 5187 13277 1 149.00000 418.400000
21273 5188 24507 1 149.00000 418.400000
14923 5189 21273 1 149.00000 418.400000
12564 5190 15441 1 149.00000 418.400000
12565 5191 13677 1 149.00000 418.400000
12565 5192 13809 1 149.00000 418.400000
12565 5193 13462 1 149.00000 418.400000
12566 5194 14555 1 149.00000 418.400000
12566 5195 15807 1 149.00000 418.400000
12566 5196 13663 1 149.00000 418.400000
11543 5197 12567 1 149.00000 418.400000
12567 5198 16028 1 149.00000 418.400000
12567 5199 13433 1 149.00000 418.400000
12568 5200 16167 1 149.00000 418.400000
12568 5201 13133 1 149.00000 418.400000
12568 5202 13104 1 149.00000 418.400000
12569 5203 13856 1 149.00000 418.400000
11556 5204 12569 1 149.00000 418.400000
12569 5205 12717 1 149.00000 418.400000
12570 5206 13922 1 149.00000 418.400000
13239 5207 13922 1 149.00000 418.400000
12570 5208 13943 1 149.00000 418.400000
12570 5209 15385 1 149.00000 418.400000
12571 5210 13508 1 149.00000 418.400000
12571 5211 14455 1 149.00000 418.400000
12571 5212 13912 1 149.00000 418.400000
12571 5213 15860 1 149.00000 418.400000
12572 5214 12722 1 149.00000 418.400000
12572 5215 16046 1 149.00000 418.400000
12572 5216 23685 1 149.00000 418.400000
12573 5217 12780 1 149.00000 418.400000
12573 5218 22065 1 149.00000 418.400000
12573 5219 12939 1 149.00000 418.400000
12573 5220 24435 1 149.00000 418.400000
15467 5221 21285 1 149.00000 418.400000
12574 5222 15969 1 149.00000 418.400000
13737 5223 14523 1 149.00000 418.400000
12575 5224 13737 1 149.00000 418.400000
12575 5225 15800 1 149.00000 418.400000
12575 5226 15785 1 149.00000 418.400000
12576 5227 15791 1 149.00000 418.400000
12576 5228 14610 1 149.00000 418.400000
12576 5229 13086 1 149.00000 418.400000
12576 5230 23970 1 149.00000 418.400000
15107 5231 15201 1 149.00000 418.400000
12577 5232 13073 1 149.00000 418.400000
12577 5233 15107 1 149.00000 418.400000
21297 5234 21993 1 149.00000 418.400000
14251 5235 21297 1 149.00000 418.400000
12578 5236 13378 1 149.00000 418.400000
12578 5237 15497 1 149.00000 418.400000
12579 5238 15624 1 149.00000 418.400000
14453 5239 15624 1 149.00000 418.400000
12579 5240 14616 1 149.00000 418.400000
12579 5241 14218 1 149.00000 418.400000
12580 5242 13411 1 149.00000 418.400000
12580 5243 14682 1 149.00000 418.400000
12580 5244 15651 1 149.00000 418.400000
12580 5245 13045 1 149.00000 418.400000
12581 5246 13220 1 149.00000 418.400000
12581 5247 13418 1 149.00000 418.400000
12581 5248 13272 1 149.00000 418.400000
12582 5249 13829 1 149.00000 418.400000
12582 5250 13764 1 149.00000 418.400000
12582 5251 22197 1 149.00000 418.400000
15355 5252 15492 1 149.00000 418.400000
12583 5253 15492 1 149.00000 418.400000
12583 5254 14833 1 149.00000 418.400000
12583 5255 15533 1 149.00000 418.400000
21309 5256 23457 1 149.00000 418.400000
17533 5257 21309 1 149.00000 418.400000
12584 5258 17071 1 149.00000 418.400000
12584 5259 14794 1 149.00000 418.400000
15557 5260 21321 1 149.00000 418.400000
13416 5261 21321 1 149.00000 418.400000
12585 5262 16090 1 149.00000 418.400000
12585 5263 15649 1 149.00000 418.400000
12585 5264 14983 1 149.00000 418.400000
12586 5265 14183 1 149.00000 418.400000
12586 5266 16090 1 149.00000 418.400000
12587 5267 13589 1 149.00000 418.400000
12587 5268 16315 1 149.00000 418.400000
12587 5269 24549 1 149.00000 418.400000
12587 5270 24441 1 149.00000 418.400000
12588 5271 14111 1 149.00000 418.400000
12588 5272 14916 1 149.00000 418.400000
12588 5273 13293 1 149.00000 418.400000
12589 5274 14660 1 149.00000 418.400000
12589 5275 13927 1 149.00000 418.400000
12589 5276 12629 1 149.00000 418.400000
12590 5277 13333 1 149.00000 418.400000
12590 5278 15890 1 149.00000 418.400000
12590 5279 15221 1 149.00000 418.400000
12590 5280 14340 1 149.00000 418.400000
12591 5281 13875 1 149.00000 418.400000
12591 5282 15853 1 149.00000 418.400000
12591 5283 12774 1 149.00000 418.400000
12591 5284 13904 1 149.00000 418.400000
12592 5285 16177 1 149.00000 418.400000
12592 5286 15256 1 149.00000 418.400000
21333 5287 24117 1 149.00000 418.400000
21333 5288 22689 1 149.00000 418.400000
12593 5289 15647 1 149.00000 418.400000
12593 5290 13013 1 149.00000 418.400000
12593 5291 13392 1 149.00000 418.400000
12594 5292 13631 1 149.00000 418.400000
12594 5293 12904 1 149.00000 418.400000
12594 5294 14656 1 149.00000 418.400000
12595 5295 14315 1 149.00000 418.400000
12595 5296 13317 1 149.00000 418.400000
12595 5297 24105 1 149.00000 418.400000
13203 5298 21345 1 149.00000 418.400000
21345 5299 23085 1 149.00000 418.400000
11301 5300 12596 1 149.00000 418.400000
12596 5301 14984 1 149.00000 418.400000
12596 5302 14550 1 149.00000 418.400000
12597 5303 13427 1 149.00000 418.400000
12597 5304 13861 1 149.00000 418.400000
12598 5305 13910 1 149.00000 418.400000
12598 5306 15003 1 149.00000 418.400000
12598 5307 23421 1 149.00000 418.400000
12599 5308 12609 1 149.00000 418.400000
12599 5309 13745 1 149.00000 418.400000
12599 5310 13724 1 149.00000 418.400000
12599 5311 13539 1 149.00000 418.400000
12600 5312 12975 1 149.00000 418.400000
12601 5313 13570 1 149.00000 418.400000
12601 5314 13840 1 149.00000 418.400000
12601 5315 13929 1 149.00000 418.400000
12601 5316 15746 1 149.00000 418.400000
12602 5317 12721 1 149.00000 418.400000
12602 5318 12642 1 149.00000 418.400000
12602 5319 13043 1 149.00000 418.400000
12602 5320 15367 1 149.00000 418.400000
12603 5321 14496 1 149.00000 418.400000
12603 5322 22473 1 149.00000 418.400000
12603 5323 13936 1 149.00000 418.400000
15986 5324 21357 1 149.00000 418.400000
21357 5325 23973 1 149.00000 418.400000
12604 5326 13992 1 149.00000 418.400000
12604 5327 14937 1 149.00000 418.400000
12604 5328 13448 1 149.00000 418.400000
12605 5329 14051 1 149.00000 418.400000
12606 5330 13603 1 149.00000 418.400000
12606 5331 14294 1 149.00000 418.400000
12606 5332 15989 1 149.00000 418.400000
12607 5333 17967 1 149.00000 418.400000
12607 5334 14859 1 149.00000 418.400000
13511 5335 15163 1 149.00000 418.400000
12608 5336 13752 1 149.00000 418.400000
13752 5337 15163 1 149.00000 418.400000
13925 5338 15163 1 149.00000 418.400000
12609 5339 15717 1 149.00000 418.400000
12609 5340 12932 1 149.00000 418.400000
12609 5341 15176 1 149.00000 418.400000
12610 5342 15296 1 149.00000 418.400000
12610 5343 15317 1 149.00000 418.400000
21369 5344 23589 1 149.00000 418.400000
12611 5345 13312 1 149.00000 418.400000
12611 5346 12769 1 149.00000 418.400000
12611 5347 14619 1 149.00000 418.400000
12612 5348 23829 1 149.00000 418.400000
12612 5349 15462 1 149.00000 418.400000
12612 5350 13383 1 149.00000 418.400000
12613 5351 13078 1 149.00000 418.400000
21381 5352 23025 1 149.00000 418.400000
15580 5353 21393 1 149.00000 418.400000
12614 5354 14951 1 149.00000 418.400000
12614 5355 13225 1 149.00000 418.400000
21405 5356 24402 1 149.00000 418.400000
12615 5357 12661 1 149.00000 418.400000
12615 5358 16119 1 149.00000 418.400000
11670 5359 12615 1 149.00000 418.400000
12615 5360 13564 1 149.00000 418.400000
12616 5361 16413 1 149.00000 418.400000
12616 5362 15635 1 149.00000 418.400000
12616 5363 13992 1 149.00000 418.400000
12617 5364 15025 1 149.00000 418.400000
12617 5365 15357 1 149.00000 418.400000
12618 5366 15680 1 149.00000 418.400000
12618 5367 13396 1 149.00000 418.400000
12618 5368 15361 1 149.00000 418.400000
12619 5369 13544 1 149.00000 418.400000
12619 5370 12633 1 149.00000 418.400000
12619 5371 15207 1 149.00000 418.400000
12620 5372 14371 1 149.00000 418.400000
15566 5373 21417 1 149.00000 418.400000
21417 5374 23061 1 149.00000 418.400000
13202 5375 14109 1 149.00000 418.400000
13202 5376 15853 1 149.00000 418.400000
12621 5377 15207 1 149.00000 418.400000
12621 5378 14920 1 149.00000 418.400000
12622 5379 15329 1 149.00000 418.400000
11961 5380 12622 1 149.00000 418.400000
12623 5381 15515 1 149.00000 418.400000
12624 5382 13992 1 149.00000 418.400000
12624 5383 13490 1 149.00000 418.400000
12624 5384 12735 1 149.00000 418.400000
12625 5385 15592 1 149.00000 418.400000
12625 5386 13157 1 149.00000 418.400000
12625 5387 13514 1 149.00000 418.400000
12626 5388 13714 1 149.00000 418.400000
12626 5389 13268 1 149.00000 418.400000
12626 5390 13059 1 149.00000 418.400000
14967 5391 21429 1 149.00000 418.400000
21429 5392 24096 1 149.00000 418.400000
12106 5393 21441 1 149.00000 418.400000
15590 5394 21441 1 149.00000 418.400000
12627 5395 12795 1 149.00000 418.400000
12627 5396 12718 1 149.00000 418.400000
12627 5397 13030 1 149.00000 418.400000
12627 5398 14290 1 149.00000 418.400000
12628 5399 16086 1 149.00000 418.400000
12628 5400 16011 1 149.00000 418.400000
12628 5401 13016 1 149.00000 418.400000
12628 5402 13578 1 149.00000 418.400000
12629 5403 13334 1 149.00000 418.400000
12629 5404 12648 1 149.00000 418.400000
12629 5405 14846 1 149.00000 418.400000
12630 5406 13653 1 149.00000 418.400000
12630 5407 13094 1 149.00000 418.400000
12630 5408 13105 1 149.00000 418.400000
12631 5409 15423 1 149.00000 418.400000
11778 5410 12631 1 149.00000 418.400000
12632 5411 15445 1 149.00000 418.400000
12632 5412 14883 1 149.00000 418.400000
15771 5413 21453 1 149.00000 418.400000
21453 5414 23931 1 149.00000 418.400000
21465 5415 24600 1 149.00000 418.400000
13498 5416 21465 1 149.00000 418.400000
12633 5417 15898 1 149.00000 418.400000
12633 5418 16095 1 149.00000 418.400000
12621 5419 12633 1 149.00000 418.400000
12634 5420 14799 1 149.00000 418.400000
12634 5421 13847 1 149.00000 418.400000
12634 5422 13145 1 149.00000 418.400000
12634 5423 15981 1 149.00000 418.400000
12635 5424 22269 1 149.00000 418.400000
12635 5425 14618 1 149.00000 418.400000
12635 5426 15160 1 149.00000 418.400000
21489 5427 23937 1 149.00000 418.400000
21489 5428 24210 1 149.00000 418.400000
12636 5429 13425 1 149.00000 418.400000
12636 5430 14540 1 149.00000 418.400000
12637 5431 13118 1 149.00000 418.400000
12637 5432 14198 1 149.00000 418.400000
12637 5433 13132 1 149.00000 418.400000
12638 5434 14089 1 149.00000 418.400000
12638 5435 16058 1 149.00000 418.400000
12638 5436 16197 1 149.00000 418.400000
12639 5437 17757 1 149.00000 418.400000
12639 5438 14085 1 149.00000 418.400000
12639 5439 12667 1 149.00000 418.400000
19749 5440 23217 1 149.00000 418.400000
12640 5441 14968 1 149.00000 418.400000
12640 5442 24270 1 149.00000 418.400000
12640 5443 13178 1 149.00000 418.400000
14154 5444 16231 1 149.00000 418.400000
13814 5445 16013 1 149.00000 418.400000
12641 5446 13814 1 149.00000 418.400000
12641 5447 15400 1 149.00000 418.400000
12642 5448 17533 1 149.00000 418.400000
12642 5449 15765 1 149.00000 418.400000
11433 5450 12643 1 149.00000 418.400000
11629 5451 14591 1 149.00000 418.400000
11629 5452 14602 1 149.00000 418.400000
12644 5453 14557 1 149.00000 418.400000
12644 5454 15587 1 149.00000 418.400000
12644 5455 15274 1 149.00000 418.400000
12645 5456 16161 1 149.00000 418.400000
12645 5457 15277 1 149.00000 418.400000
12645 5458 14955 1 149.00000 418.400000
12645 5459 13672 1 149.00000 418.400000
12646 5460 16679 1 149.00000 418.400000
12646 5461 15083 1 149.00000 418.400000
12646 5462 17589 1 149.00000 418.400000
12646 5463 23097 1 149.00000 418.400000
12864 5464 13017 1 149.00000 418.400000
12648 5465 13307 1 149.00000 418.400000
12648 5466 12864 1 149.00000 418.400000
21501 5467 24195 1 149.00000 418.400000
21501 5468 24576 1 149.00000 418.400000
12793 5469 21501 1 149.00000 418.400000
12649 5470 14221 1 149.00000 418.400000
12649 5471 15281 1 149.00000 418.400000
16301 5472 21513 1 149.00000 418.400000
21513 5473 24378 1 149.00000 418.400000
12650 5474 14926 1 149.00000 418.400000
12650 5475 13255 1 149.00000 418.400000
11432 5476 15631 1 149.00000 418.400000
12652 5477 15882 1 149.00000 418.400000
12652 5478 14445 1 149.00000 418.400000
12653 5479 15539 1 149.00000 418.400000
12653 5480 15192 1 149.00000 418.400000
12653 5481 15975 1 149.00000 418.400000
12653 5482 14102 1 149.00000 418.400000
12654 5483 15782 1 149.00000 418.400000
12654 5484 13565 1 149.00000 418.400000
12654 5485 13148 1 149.00000 418.400000
12655 5486 13476 1 149.00000 418.400000
12655 5487 16192 1 149.00000 418.400000
12656 5488 14285 1 149.00000 418.400000
12656 5489 14654 1 149.00000 418.400000
12656 5490 13538 1 149.00000 418.400000
12657 5491 13951 1 149.00000 418.400000
12657 5492 13904 1 149.00000 418.400000
12657 5493 15149 1 149.00000 418.400000
12658 5494 14222 1 149.00000 418.400000
12658 5495 13895 1 149.00000 418.400000
16018 5496 21525 1 149.00000 418.400000
15136 5497 21525 1 149.00000 418.400000
16343 5498 21525 1 149.00000 418.400000
12659 5499 14774 1 149.00000 418.400000
12659 5500 16003 1 149.00000 418.400000
21537 5501 22725 1 149.00000 418.400000
14449 5502 21537 1 149.00000 418.400000
15807 5503 21537 1 149.00000 418.400000
12660 5504 17505 1 149.00000 418.400000
12660 5505 15532 1 149.00000 418.400000
12660 5506 21621 1 149.00000 418.400000
12661 5507 15561 1 149.00000 418.400000
12661 5508 14740 1 149.00000 418.400000
12661 5509 15273 1 149.00000 418.400000
12662 5510 12934 1 149.00000 418.400000
12662 5511 14173 1 149.00000 418.400000
12663 5512 15835 1 149.00000 418.400000
12663 5513 16190 1 149.00000 418.400000
12663 5514 13981 1 149.00000 418.400000
12663 5515 15044 1 149.00000 418.400000
15412 5516 21549 1 149.00000 418.400000
12664 5517 16161 1 149.00000 418.400000
12664 5518 13467 1 149.00000 418.400000
12664 5519 12960 1 149.00000 418.400000
12665 5520 15017 1 149.00000 418.400000
12665 5521 12717 1 149.00000 418.400000
12665 5522 14958 1 149.00000 418.400000
12666 5523 14179 1 149.00000 418.400000
12666 5524 14141 1 149.00000 418.400000
12667 5525 15930 1 149.00000 418.400000
13825 5526 21561 1 149.00000 418.400000
21561 5527 21825 1 149.00000 418.400000
12668 5528 13522 1 149.00000 418.400000
12668 5529 14667 1 149.00000 418.400000
12668 5530 13172 1 149.00000 418.400000
12668 5531 14107 1 149.00000 418.400000
12669 5532 12856 1 149.00000 418.400000
12669 5533 12919 1 149.00000 418.400000
12669 5534 12920 1 149.00000 418.400000
12670 5535 13474 1 149.00000 418.400000
12670 5536 15842 1 149.00000 418.400000
12671 5537 16078 1 149.00000 418.400000
12671 5538 13049 1 149.00000 418.400000
12671 5539 15130 1 149.00000 418.400000
21573 5540 24618 1 149.00000 418.400000
13804 5541 21573 1 149.00000 418.400000
12672 5542 24679 1 149.00000 418.400000
12672 5543 14970 1 149.00000 418.400000
12673 5544 15820 1 149.00000 418.400000
13860 5545 15559 1 149.00000 418.400000
12673 5546 14055 1 149.00000 418.400000
12673 5547 15559 1 149.00000 418.400000
12674 5548 15642 1 149.00000 418.400000
12674 5549 13751 1 149.00000 418.400000
12030 5550 15503 1 149.00000 418.400000
15928 5551 21585 1 149.00000 418.400000
13722 5552 21585 1 149.00000 418.400000
12675 5553 15631 1 149.00000 418.400000
12675 5554 15013 1 149.00000 418.400000
12675 5555 14014 1 149.00000 418.400000
12675 5556 12881 1 149.00000 418.400000
12676 5557 14998 1 149.00000 418.400000
12676 5558 14258 1 149.00000 418.400000
12676 5559 14022 1 149.00000 418.400000
12677 5560 15915 1 149.00000 418.400000
12677 5561 16917 1 149.00000 418.400000
12678 5562 14083 1 149.00000 418.400000
12678 5563 14467 1 149.00000 418.400000
12678 5564 14058 1 149.00000 418.400000
12679 5565 15318 1 149.00000 418.400000
12679 5566 24644 1 149.00000 418.400000
12679 5567 15544 1 149.00000 418.400000
12680 5568 13811 1 149.00000 418.400000
12680 5569 14224 1 149.00000 418.400000
12680 5570 12694 1 149.00000 418.400000
12681 5571 13340 1 149.00000 418.400000
21609 5572 23289 1 149.00000 418.400000
15735 5573 21609 1 149.00000 418.400000
12682 5574 15575 1 149.00000 418.400000
12682 5575 13435 1 149.00000 418.400000
12682 5576 15806 1 149.00000 418.400000
11882 5577 15217 1 149.00000 418.400000
15217 5578 16245 1 149.00000 418.400000
13257 5579 21621 1 149.00000 418.400000
15813 5580 17743 1 149.00000 418.400000
17743 5581 21621 1 149.00000 418.400000
12683 5582 22317 1 149.00000 418.400000
12683 5583 15227 1 149.00000 418.400000
12683 5584 14104 1 149.00000 418.400000
12684 5585 15527 1 149.00000 418.400000
12684 5586 13297 1 149.00000 418.400000
12685 5587 13819 1 149.00000 418.400000
12685 5588 14756 1 149.00000 418.400000
12685 5589 13184 1 149.00000 418.400000
12685 5590 16162 1 149.00000 418.400000
12686 5591 16206 1 149.00000 418.400000
12686 5592 24177 1 149.00000 418.400000
12686 5593 13538 1 149.00000 418.400000
12687 5594 14186 1 149.00000 418.400000
12687 5595 12839 1 149.00000 418.400000
12687 5596 15211 1 149.00000 418.400000
12687 5597 15716 1 149.00000 418.400000
12688 5598 15265 1 149.00000 418.400000
12688 5599 12760 1 149.00000 418.400000
12689 5600 15347 1 149.00000 418.400000
12689 5601 13413 1 149.00000 418.400000
12690 5602 14038 1 149.00000 418.400000
12690 5603 14179 1 149.00000 418.400000
12690 5604 13504 1 149.00000 418.400000
12691 5605 14081 1 149.00000 418.400000
12691 5606 14394 1 149.00000 418.400000
12691 5607 13909 1 149.00000 418.400000
12691 5608 13245 1 149.00000 418.400000
12692 5609 13956 1 149.00000 418.400000
12692 5610 14734 1 149.00000 418.400000
12692 5611 16168 1 149.00000 418.400000
12693 5612 15156 1 149.00000 418.400000
12693 5613 15016 1 149.00000 418.400000
12693 5614 15851 1 149.00000 418.400000
12694 5615 13920 1 149.00000 418.400000
12694 5616 15266 1 149.00000 418.400000
12694 5617 14733 1 149.00000 418.400000
12695 5618 15342 1 149.00000 418.400000
12695 5619 14069 1 149.00000 418.400000
12695 5620 13831 1 149.00000 418.400000
12695 5621 13389 1 149.00000 418.400000
12696 5622 14826 1 149.00000 418.400000
12696 5623 16079 1 149.00000 418.400000
12696 5624 14002 1 149.00000 418.400000
12696 5625 14069 1 149.00000 418.400000
12697 5626 15870 1 149.00000 418.400000
12698 5627 24447 1 149.00000 418.400000
12698 5628 14271 1 149.00000 418.400000
12699 5629 13947 1 149.00000 418.400000
13501 5630 21633 1 149.00000 418.400000
12700 5631 13914 1 149.00000 418.400000
14901 5632 15681 1 149.00000 418.400000
12700 5633 15681 1 149.00000 418.400000
12700 5634 13215 1 149.00000 418.400000
12701 5635 15742 1 149.00000 418.400000
12701 5636 15649 1 149.00000 418.400000
12701 5637 12767 1 149.00000 418.400000
12701 5638 13354 1 149.00000 418.400000
12702 5639 14952 1 149.00000 418.400000
12702 5640 13025 1 149.00000 418.400000
12702 5641 15162 1 149.00000 418.400000
12703 5642 14459 1 149.00000 418.400000
12703 5643 15933 1 149.00000 418.400000
12703 5644 13405 1 149.00000 418.400000
12703 5645 14337 1 149.00000 418.400000
12704 5646 13382 1 149.00000 418.400000
12704 5647 15070 1 149.00000 418.400000
12704 5648 14394 1 149.00000 418.400000
12705 5649 16108 1 149.00000 418.400000
12705 5650 13893 1 149.00000 418.400000
12705 5651 14839 1 149.00000 418.400000
12705 5652 16131 1 149.00000 418.400000
13701 5653 14565 1 149.00000 418.400000
12706 5654 13701 1 149.00000 418.400000
12706 5655 14080 1 149.00000 418.400000
12707 5656 13407 1 149.00000 418.400000
12707 5657 13613 1 149.00000 418.400000
12707 5658 15019 1 149.00000 418.400000
12707 5659 15534 1 149.00000 418.400000
15383 5660 19953 1 149.00000 418.400000
12708 5661 12937 1 149.00000 418.400000
12708 5662 15182 1 149.00000 418.400000
12708 5663 13766 1 149.00000 418.400000
12709 5664 13609 1 149.00000 418.400000
12709 5665 12860 1 149.00000 418.400000
12709 5666 22413 1 149.00000 418.400000
12710 5667 14576 1 149.00000 418.400000
12710 5668 16078 1 149.00000 418.400000
12710 5669 14131 1 149.00000 418.400000
12711 5670 13920 1 149.00000 418.400000
12711 5671 24444 1 149.00000 418.400000
12711 5672 12866 1 149.00000 418.400000
12711 5673 24348 1 149.00000 418.400000
12712 5674 13914 1 149.00000 418.400000
12712 5675 12915 1 149.00000 418.400000
12712 5676 13226 1 149.00000 418.400000
12712 5677 12746 1 149.00000 418.400000
12713 5678 14994 1 149.00000 418.400000
12713 5679 13407 1 149.00000 418.400000
12713 5680 15809 1 149.00000 418.400000
12714 5681 16030 1 149.00000 418.400000
12714 5682 14240 1 149.00000 418.400000
12715 5683 14469 1 149.00000 418.400000
12715 5684 14115 1 149.00000 418.400000
12715 5685 15178 1 149.00000 418.400000
12716 5686 15418 1 149.00000 418.400000
12716 5687 14133 1 149.00000 418.400000
12716 5688 13720 1 149.00000 418.400000
12717 5689 14197 1 149.00000 418.400000
12717 5690 14502 1 149.00000 418.400000
12718 5691 15852 1 149.00000 418.400000
12718 5692 13575 1 149.00000 418.400000
12718 5693 14557 1 149.00000 418.400000
11677 5694 13053 1 149.00000 418.400000
13053 5695 15692 1 149.00000 418.400000
12720 5696 14921 1 149.00000 418.400000
12720 5697 14917 1 149.00000 418.400000
12720 5698 15454 1 149.00000 418.400000
12720 5699 15689 1 149.00000 418.400000
12721 5700 12933 1 149.00000 418.400000
12721 5701 15846 1 149.00000 418.400000
12721 5702 15724 1 149.00000 418.400000
12722 5703 14875 1 149.00000 418.400000
12722 5704 12972 1 149.00000 418.400000
12722 5705 15507 1 149.00000 418.400000
12765 5706 13649 1 149.00000 418.400000
12723 5707 14432 1 149.00000 418.400000
12723 5708 12765 1 149.00000 418.400000
12724 5709 17897 1 149.00000 418.400000
12724 5710 13158 1 149.00000 418.400000
12725 5711 13421 1 149.00000 418.400000
12725 5712 13439 1 149.00000 418.400000
14103 5713 21645 1 149.00000 418.400000
21645 5714 22341 1 149.00000 418.400000
14215 5715 21657 1 149.00000 418.400000
13129 5716 21657 1 149.00000 418.400000
13655 5717 21657 1 149.00000 418.400000
12726 5718 14596 1 149.00000 418.400000
12726 5719 13642 1 149.00000 418.400000
12726 5720 15894 1 149.00000 418.400000
12726 5721 15914 1 149.00000 418.400000
12727 5722 14484 1 149.00000 418.400000
12727 5723 14323 1 149.00000 418.400000
12727 5724 15130 1 149.00000 418.400000
15680 5725 21669 1 149.00000 418.400000
13677 5726 21669 1 149.00000 418.400000
21669 5727 22929 1 149.00000 418.400000
12728 5728 14405 1 149.00000 418.400000
12728 5729 13763 1 149.00000 418.400000
12728 5730 14746 1 149.00000 418.400000
12729 5731 14774 1 149.00000 418.400000
12729 5732 13965 1 149.00000 418.400000
12730 5733 13007 1 149.00000 418.400000
12730 5734 13055 1 149.00000 418.400000
12731 5735 24342 1 149.00000 418.400000
12731 5736 13263 1 149.00000 418.400000
15836 5737 16259 1 149.00000 418.400000
12732 5738 15447 1 149.00000 418.400000
12732 5739 13120 1 149.00000 418.400000
12732 5740 15243 1 149.00000 418.400000
12732 5741 14605 1 149.00000 418.400000
12733 5742 15752 1 149.00000 418.400000
12733 5743 12799 1 149.00000 418.400000
14678 5744 15752 1 149.00000 418.400000
12563 5745 12734 1 149.00000 418.400000
12734 5746 13970 1 149.00000 418.400000
12735 5747 14934 1 149.00000 418.400000
12735 5748 14127 1 149.00000 418.400000
12736 5749 14298 1 149.00000 418.400000
12736 5750 13716 1 149.00000 418.400000
13728 5751 21681 1 149.00000 418.400000
13803 5752 21681 1 149.00000 418.400000
12737 5753 13337 1 149.00000 418.400000
12737 5754 12988 1 149.00000 418.400000
12737 5755 15700 1 149.00000 418.400000
12738 5756 14248 1 149.00000 418.400000
12738 5757 14142 1 149.00000 418.400000
12738 5758 13798 1 149.00000 418.400000
12739 5759 14421 1 149.00000 418.400000
14421 5760 16051 1 149.00000 418.400000
12740 5761 14646 1 149.00000 418.400000
12740 5762 16399 1 149.00000 418.400000
12740 5763 24258 1 149.00000 418.400000
14351 5764 14646 1 149.00000 418.400000
12741 5765 13059 1 149.00000 418.400000
12741 5766 15640 1 149.00000 418.400000
12742 5767 15362 1 149.00000 418.400000
12742 5768 14165 1 149.00000 418.400000
12742 5769 15129 1 149.00000 418.400000
12742 5770 13716 1 149.00000 418.400000
12743 5771 14530 1 149.00000 418.400000
12744 5772 15566 1 149.00000 418.400000
12744 5773 14848 1 149.00000 418.400000
13476 5774 21693 1 149.00000 418.400000
13368 5775 21693 1 149.00000 418.400000
16023 5776 21693 1 149.00000 418.400000
12745 5777 12763 1 149.00000 418.400000
12745 5778 13250 1 149.00000 418.400000
12745 5779 14590 1 149.00000 418.400000
12746 5780 13484 1 149.00000 418.400000
12746 5781 13854 1 149.00000 418.400000
12746 5782 13358 1 149.00000 418.400000
12747 5783 14671 1 149.00000 418.400000
12747 5784 12977 1 149.00000 418.400000
12747 5785 14803 1 149.00000 418.400000
12748 5786 24390 1 149.00000 418.400000
12749 5787 13381 1 149.00000 418.400000
12749 5788 15223 1 149.00000 418.400000
12749 5789 13733 1 149.00000 418.400000
12749 5790 15774 1 149.00000 418.400000
14973 5791 15214 1 149.00000 418.400000
12750 5792 14973 1 149.00000 418.400000
12750 5793 14741 1 149.00000 418.400000
13056 5794 13691 1 149.00000 418.400000
12751 5795 14050 1 149.00000 418.400000
12751 5796 13837 1 149.00000 418.400000
12751 5797 13691 1 149.00000 418.400000
12752 5798 13427 1 149.00000 418.400000
11301 5799 12752 1 149.00000 418.400000
12752 5800 14003 1 149.00000 418.400000
12752 5801 13632 1 149.00000 418.400000
12753 5802 13144 1 149.00000 418.400000
12754 5803 15075 1 149.00000 418.400000
12754 5804 14983 1 149.00000 418.400000
12754 5805 15742 1 149.00000 418.400000
12755 5806 15223 1 149.00000 418.400000
12755 5807 14963 1 149.00000 418.400000
12755 5808 14609 1 149.00000 418.400000
12755 5809 15162 1 149.00000 418.400000
12756 5810 15330 1 149.00000 418.400000
12756 5811 14636 1 149.00000 418.400000
12757 5812 12902 1 149.00000 418.400000
12757 5813 13929 1 149.00000 418.400000
12757 5814 12810 1 149.00000 418.400000
12758 5815 16051 1 149.00000 418.400000
12758 5816 15608 1 149.00000 418.400000
12758 5817 13309 1 149.00000 418.400000
12759 5818 15745 1 149.00000 418.400000
12759 5819 15987 1 149.00000 418.400000
12688 5820 13536 1 149.00000 418.400000
12760 5821 13920 1 149.00000 418.400000
12761 5822 14263 1 149.00000 418.400000
12761 5823 15913 1 149.00000 418.400000
13089 5824 15014 1 149.00000 418.400000
12762 5825 15014 1 149.00000 418.400000
12762 5826 14983 1 149.00000 418.400000
12762 5827 13706 1 149.00000 418.400000
13982 5828 14027 1 149.00000 418.400000
14027 5829 21705 1 149.00000 418.400000
12987 5830 16273 1 149.00000 418.400000
12763 5831 14851 1 149.00000 418.400000
14971 5832 21717 1 149.00000 418.400000
21717 5833 23553 1 149.00000 418.400000
16707 5834 21717 1 149.00000 418.400000
12764 5835 13833 1 149.00000 418.400000
12764 5836 14392 1 149.00000 418.400000
14149 5837 14392 1 149.00000 418.400000
14034 5838 14392 1 149.00000 418.400000
16006 5839 21729 1 149.00000 418.400000
16006 5840 23952 1 149.00000 418.400000
16006 5841 24564 1 149.00000 418.400000
15876 5842 16006 1 149.00000 418.400000
12765 5843 14730 1 149.00000 418.400000
12723 5844 16040 1 149.00000 418.400000
12766 5845 16735 1 149.00000 418.400000
12766 5846 16427 1 149.00000 418.400000
12767 5847 13605 1 149.00000 418.400000
12767 5848 17085 1 149.00000 418.400000
12767 5849 24027 1 149.00000 418.400000
12768 5850 15628 1 149.00000 418.400000
12768 5851 13994 1 149.00000 418.400000
12768 5852 14649 1 149.00000 418.400000
12769 5853 15816 1 149.00000 418.400000
12770 5854 13665 1 149.00000 418.400000
12770 5855 13668 1 149.00000 418.400000
12770 5856 24219 1 149.00000 418.400000
12770 5857 15397 1 149.00000 418.400000
12512 5858 12771 1 149.00000 418.400000
12771 5859 13195 1 149.00000 418.400000
15253 5860 21741 1 149.00000 418.400000
14860 5861 15253 1 149.00000 418.400000
12772 5862 15546 1 149.00000 418.400000
14006 5863 14801 1 149.00000 418.400000
12772 5864 14801 1 149.00000 418.400000
12773 5865 15060 1 149.00000 418.400000
12773 5866 22485 1 149.00000 418.400000
12773 5867 15712 1 149.00000 418.400000
12774 5868 14250 1 149.00000 418.400000
12774 5869 15981 1 149.00000 418.400000
12775 5870 14913 1 149.00000 418.400000
12775 5871 13501 1 149.00000 418.400000
12775 5872 15408 1 149.00000 418.400000
12776 5873 12906 1 149.00000 418.400000
12776 5874 14888 1 149.00000 418.400000
12776 5875 13355 1 149.00000 418.400000
12777 5876 13193 1 149.00000 418.400000
12777 5877 13622 1 149.00000 418.400000
12777 5878 13132 1 149.00000 418.400000
11451 5879 12777 1 149.00000 418.400000
12778 5880 13586 1 149.00000 418.400000
12778 5881 13472 1 149.00000 418.400000
12778 5882 13557 1 149.00000 418.400000
12778 5883 15177 1 149.00000 418.400000
12779 5884 14696 1 149.00000 418.400000
12779 5885 13223 1 149.00000 418.400000
12779 5886 15626 1 149.00000 418.400000
12780 5887 16210 1 149.00000 418.400000
12780 5888 15128 1 149.00000 418.400000
12781 5889 13228 1 149.00000 418.400000
12781 5890 13974 1 149.00000 418.400000
12781 5891 14781 1 149.00000 418.400000
13196 5892 21753 1 149.00000 418.400000
12245 5893 21753 1 149.00000 418.400000
14626 5894 21753 1 149.00000 418.400000
12782 5895 14238 1 149.00000 418.400000
12782 5896 15272 1 149.00000 418.400000
12782 5897 14380 1 149.00000 418.400000
12783 5898 15756 1 149.00000 418.400000
12783 5899 15279 1 149.00000 418.400000
12783 5900 14598 1 149.00000 418.400000
12784 5901 14047 1 149.00000 418.400000
12784 5902 12993 1 149.00000 418.400000
12784 5903 13507 1 149.00000 418.400000
12785 5904 13246 1 149.00000 418.400000
12785 5905 14416 1 149.00000 418.400000
12785 5906 15829 1 149.00000 418.400000
12785 5907 13366 1 149.00000 418.400000
12786 5908 15282 1 149.00000 418.400000
11974 5909 12786 1 149.00000 418.400000
12786 5910 13036 1 149.00000 418.400000
12787 5911 14115 1 149.00000 418.400000
12787 5912 13297 1 149.00000 418.400000
12787 5913 14818 1 149.00000 418.400000
12788 5914 14810 1 149.00000 418.400000
12788 5915 14911 1 149.00000 418.400000
12788 5916 13062 1 149.00000 418.400000
12789 5917 13076 1 149.00000 418.400000
12789 5918 13450 1 149.00000 418.400000
15965 5919 16287 1 149.00000 418.400000
11409 5920 12790 1 149.00000 418.400000
12790 5921 15014 1 149.00000 418.400000
12790 5922 13117 1 149.00000 418.400000
12791 5923 15616 1 149.00000 418.400000
12791 5924 15389 1 149.00000 418.400000
12791 5925 12993 1 149.00000 418.400000
12792 5926 14013 1 149.00000 418.400000
12060 5927 13269 1 149.00000 418.400000
12793 5928 15761 1 149.00000 418.400000
12793 5929 14736 1 149.00000 418.400000
12794 5930 13577 1 149.00000 418.400000
12794 5931 16013 1 149.00000 418.400000
12794 5932 13854 1 149.00000 418.400000
12794 5933 13944 1 149.00000 418.400000
12795 5934 13470 1 149.00000 418.400000
12796 5935 14413 1 149.00000 418.400000
12796 5936 14002 1 149.00000 418.400000
12797 5937 13756 1 149.00000 418.400000
12797 5938 13246 1 149.00000 418.400000
12798 5939 14219 1 149.00000 418.400000
12798 5940 13288 1 149.00000 418.400000
12798 5941 14517 1 149.00000 418.400000
12798 5942 14063 1 149.00000 418.400000
15494 5943 15874 1 149.00000 418.400000
13760 5944 15494 1 149.00000 418.400000
12799 5945 15494 1 149.00000 418.400000
12800 5946 14845 1 149.00000 418.400000
12800 5947 14844 1 149.00000 418.400000
12800 5948 12994 1 149.00000 418.400000
12801 5949 16045 1 149.00000 418.400000
12801 5950 13619 1 149.00000 418.400000
12801 5951 12927 1 149.00000 418.400000
12801 5952 13269 1 149.00000 418.400000
12802 5953 13695 1 149.00000 418.400000
12802 5954 15173 1 149.00000 418.400000
12570 5955 12802 1 149.00000 418.400000
12802 5956 15785 1 149.00000 418.400000
12803 5957 13938 1 149.00000 418.400000
12803 5958 13485 1 149.00000 418.400000
12803 5959 13250 1 149.00000 418.400000
12803 5960 15016 1 149.00000 418.400000
12804 5961 22557 1 149.00000 418.400000
12804 5962 13420 1 149.00000 418.400000
14795 5963 23733 1 149.00000 418.400000
13114 5964 21765 1 149.00000 418.400000
21765 5965 23733 1 149.00000 418.400000
12805 5966 15152 1 149.00000 418.400000
12805 5967 14953 1 149.00000 418.400000
12806 5968 13711 1 149.00000 418.400000
12806 5969 21105 1 149.00000 418.400000
12807 5970 13985 1 149.00000 418.400000
12807 5971 13973 1 149.00000 418.400000
12807 5972 13293 1 149.00000 418.400000
13168 5973 13985 1 149.00000 418.400000
21777 5974 24609 1 149.00000 418.400000
21777 5975 22461 1 149.00000 418.400000
12808 5976 13420 1 149.00000 418.400000
12808 5977 14973 1 149.00000 418.400000
13261 5978 13963 1 149.00000 418.400000
21789 5979 24006 1 149.00000 418.400000
13261 5980 21789 1 149.00000 418.400000
13261 5981 23997 1 149.00000 418.400000
12809 5982 13747 1 149.00000 418.400000
12809 5983 12978 1 149.00000 418.400000
12810 5984 15224 1 149.00000 418.400000
12810 5985 13874 1 149.00000 418.400000
12810 5986 13063 1 149.00000 418.400000
12811 5987 16031 1 149.00000 418.400000
12811 5988 15219 1 149.00000 418.400000
12812 5989 15640 1 149.00000 418.400000
12812 5990 14368 1 149.00000 418.400000
21801 5991 24204 1 149.00000 418.400000
12956 5992 21801 1 149.00000 418.400000
12813 5993 14930 1 149.00000 418.400000
12813 5994 13302 1 149.00000 418.400000
12813 5995 15967 1 149.00000 418.400000
12813 5996 14610 1 149.00000 418.400000
21813 5997 24804 1 149.00000 418.400000
21813 5998 23109 1 149.00000 418.400000
12814 5999 15475 1 149.00000 418.400000
21825 6000 24102 1 149.00000 418.400000
16117 6001 21825 1 149.00000 418.400000
12815 6002 15034 1 149.00000 418.400000
12815 6003 13510 1 149.00000 418.400000
12815 6004 12844 1 149.00000 418.400000
16026 6005 21837 1 149.00000 418.400000
15053 6006 21837 1 149.00000 418.400000
12816 6007 15179 1 149.00000 418.400000
12816 6008 12907 1 149.00000 418.400000
12816 6009 15162 1 149.00000 418.400000
12816 6010 13480 1 149.00000 418.400000
12817 6011 15200 1 149.00000 418.400000
12817 6012 15607 1 149.00000 418.400000
12818 6013 12885 1 149.00000 418.400000
12818 6014 23961 1 149.00000 418.400000
12818 6015 14816 1 149.00000 418.400000
12819 6016 16118 1 149.00000 418.400000
12819 6017 14372 1 149.00000 418.400000
12819 6018 14667 1 149.00000 418.400000
12819 6019 15951 1 149.00000 418.400000
11497 6020 13108 1 149.00000 418.400000
11497 6021 15906 1 149.00000 418.400000
12821 6022 15097 1 149.00000 418.400000
12821 6023 13451 1 149.00000 418.400000
12821 6024 13467 1 149.00000 418.400000
12821 6025 14521 1 149.00000 418.400000
16413 6026 21849 1 149.00000 418.400000
14934 6027 21849 1 149.00000 418.400000
12822 6028 13443 1 149.00000 418.400000
12822 6029 14907 1 149.00000 418.400000
12822 6030 15757 1 149.00000 418.400000
15736 6031 16637 1 149.00000 418.400000
15736 6032 21861 1 149.00000 418.400000
12823 6033 13391 1 149.00000 418.400000
12823 6034 14184 1 149.00000 418.400000
12824 6035 13313 1 149.00000 418.400000
12824 6036 16179 1 149.00000 418.400000
12824 6037 13578 1 149.00000 418.400000
21873 6038 21981 1 149.00000 418.400000
12825 6039 13713 1 149.00000 418.400000
12825 6040 15823 1 149.00000 418.400000
12825 6041 13363 1 149.00000 418.400000
12825 6042 15328 1 149.00000 418.400000
12826 6043 15923 1 149.00000 418.400000
12826 6044 14140 1 149.00000 418.400000
12826 6045 15413 1 149.00000 418.400000
12826 6046 15862 1 149.00000 418.400000
12827 6047 15512 1 149.00000 418.400000
12827 6048 13902 1 149.00000 418.400000
12827 6049 15148 1 149.00000 418.400000
12828 6050 16125 1 149.00000 418.400000
13443 6051 16301 1 149.00000 418.400000
12829 6052 14598 1 149.00000 418.400000
12829 6053 15252 1 149.00000 418.400000
12829 6054 14462 1 149.00000 418.400000
12830 6055 14630 1 149.00000 418.400000
12830 6056 22977 1 149.00000 418.400000
12830 6057 16763 1 149.00000 418.400000
12831 6058 14495 1 149.00000 418.400000
12831 6059 15811 1 149.00000 418.400000
12831 6060 15645 1 149.00000 418.400000
12832 6061 16065 1 149.00000 418.400000
12833 6062 12977 1 149.00000 418.400000
12833 6063 14487 1 149.00000 418.400000
12833 6064 15539 1 149.00000 418.400000
12834 6065 13180 1 149.00000 418.400000
12834 6066 16120 1 149.00000 418.400000
12834 6067 15184 1 149.00000 418.400000
12835 6068 15530 1 149.00000 418.400000
12835 6069 13312 1 149.00000 418.400000
12836 6070 15318 1 149.00000 418.400000
12836 6071 14780 1 149.00000 418.400000
12836 6072 15998 1 149.00000 418.400000
12836 6073 23697 1 149.00000 418.400000
12837 6074 14012 1 149.00000 418.400000
12837 6075 14006 1 149.00000 418.400000
12838 6076 16186 1 149.00000 418.400000
12838 6077 14524 1 149.00000 418.400000
12838 6078 15668 1 149.00000 418.400000
13709 6079 16329 1 149.00000 418.400000
15111 6080 16329 1 149.00000 418.400000
12839 6081 14471 1 149.00000 418.400000
12839 6082 14882 1 149.00000 418.400000
12839 6083 14170 1 149.00000 418.400000
12840 6084 13484 1 149.00000 418.400000
12840 6085 14177 1 149.00000 418.400000
12840 6086 13215 1 149.00000 418.400000
12840 6087 14493 1 149.00000 418.400000
16181 6088 21885 1 149.00000 418.400000
21885 6089 24192 1 149.00000 418.400000
12841 6090 15006 1 149.00000 418.400000
12841 6091 15667 1 149.00000 418.400000
12841 6092 13914 1 149.00000 418.400000
12841 6093 13656 1 149.00000 418.400000
12842 6094 14812 1 149.00000 418.400000
12842 6095 15895 1 149.00000 418.400000
12842 6096 13143 1 149.00000 418.400000
12843 6097 13186 1 149.00000 418.400000
12843 6098 13241 1 149.00000 418.400000
14168 6099 21909 1 149.00000 418.400000
21909 6100 24531 1 149.00000 418.400000
13829 6101 21909 1 149.00000 418.400000
12844 6102 14585 1 149.00000 418.400000
12844 6103 16123 1 149.00000 418.400000
12845 6104 15616 1 149.00000 418.400000
12845 6105 13297 1 149.00000 418.400000
12845 6106 14017 1 149.00000 418.400000
12845 6107 14321 1 149.00000 418.400000
15519 6108 21921 1 149.00000 418.400000
15498 6109 21921 1 149.00000 418.400000
14993 6110 21921 1 149.00000 418.400000
12846 6111 14225 1 149.00000 418.400000
14628 6112 14897 1 149.00000 418.400000
12846 6113 14628 1 149.00000 418.400000
15609 6114 15661 1 149.00000 418.400000
12847 6115 15237 1 149.00000 418.400000
20817 6116 21933 1 149.00000 418.400000
15886 6117 21933 1 149.00000 418.400000
12848 6118 15721 1 149.00000 418.400000
12849 6119 15439 1 149.00000 418.400000
12849 6120 12878 1 149.00000 418.400000
12849 6121 13506 1 149.00000 418.400000
15497 6122 21945 1 149.00000 418.400000
13551 6123 21945 1 149.00000 418.400000
12850 6124 14294 1 149.00000 418.400000
12850 6125 15524 1 149.00000 418.400000
12850 6126 17617 1 149.00000 418.400000
12850 6127 13019 1 149.00000 418.400000
12851 6128 13226 1 149.00000 418.400000
11937 6129 12852 1 149.00000 418.400000
12852 6130 17953 1 149.00000 418.400000
12852 6131 13940 1 149.00000 418.400000
12853 6132 12854 1 149.00000 418.400000
12853 6133 13034 1 149.00000 418.400000
12853 6134 15091 1 149.00000 418.400000
13255 6135 15013 1 149.00000 418.400000
12854 6136 12881 1 149.00000 418.400000
12855 6137 14561 1 149.00000 418.400000
12855 6138 13321 1 149.00000 418.400000
12855 6139 13587 1 149.00000 418.400000
12855 6140 15615 1 149.00000 418.400000
12856 6141 12997 1 149.00000 418.400000
12856 6142 15538 1 149.00000 418.400000
12856 6143 13865 1 149.00000 418.400000
12857 6144 24456 1 149.00000 418.400000
13794 6145 14326 1 149.00000 418.400000
12858 6146 13794 1 149.00000 418.400000
13794 6147 15377 1 149.00000 418.400000
16651 6148 21957 1 149.00000 418.400000
21957 6149 24237 1 149.00000 418.400000
12859 6150 24522 1 149.00000 418.400000
12859 6151 24621 1 149.00000 418.400000
12859 6152 24267 1 149.00000 418.400000
12859 6153 15117 1 149.00000 418.400000
12860 6154 13830 1 149.00000 418.400000
12861 6155 13823 1 149.00000 418.400000
12861 6156 13976 1 149.00000 418.400000
12861 6157 13662 1 149.00000 418.400000
12862 6158 15468 1 149.00000 418.400000
12862 6159 13636 1 149.00000 418.400000
12863 6160 14009 1 149.00000 418.400000
12457 6161 13326 1 149.00000 418.400000
13326 6162 15346 1 149.00000 418.400000
13281 6163 21969 1 149.00000 418.400000
13393 6164 21969 1 149.00000 418.400000
12864 6165 14052 1 149.00000 418.400000
12864 6166 13610 1 149.00000 418.400000
13943 6167 15946 1 149.00000 418.400000
12865 6168 15490 1 149.00000 418.400000
12865 6169 15121 1 149.00000 418.400000
12865 6170 13943 1 149.00000 418.400000
12866 6171 15056 1 149.00000 418.400000
12866 6172 23940 1 149.00000 418.400000
21981 6173 23697 1 149.00000 418.400000
14062 6174 21981 1 149.00000 418.400000
15517 6175 16213 1 149.00000 418.400000
12867 6176 13276 1 149.00000 418.400000
12867 6177 15873 1 149.00000 418.400000
11668 6178 16213 1 149.00000 418.400000
12868 6179 14592 1 149.00000 418.400000
12868 6180 12897 1 149.00000 418.400000
12869 6181 15314 1 149.00000 418.400000
12869 6182 15910 1 149.00000 418.400000
12869 6183 13867 1 149.00000 418.400000
12869 6184 14020 1 149.00000 418.400000
12870 6185 14117 1 149.00000 418.400000
12870 6186 16623 1 149.00000 418.400000
12870 6187 24634 1 149.00000 418.400000
12871 6188 13101 1 149.00000 418.400000
12871 6189 15951 1 149.00000 418.400000
12871 6190 13963 1 149.00000 418.400000
12871 6191 13340 1 149.00000 418.400000
14144 6192 21993 1 149.00000 418.400000
12872 6193 14194 1 149.00000 418.400000
12872 6194 13408 1 149.00000 418.400000
12872 6195 14539 1 149.00000 418.400000
12872 6196 13918 1 149.00000 418.400000
15519 6197 22005 1 149.00000 418.400000
14735 6198 22005 1 149.00000 418.400000
14099 6199 17071 1 149.00000 418.400000
12873 6200 15489 1 149.00000 418.400000
12873 6201 14286 1 149.00000 418.400000
12873 6202 13124 1 149.00000 418.400000
12874 6203 13251 1 149.00000 418.400000
12874 6204 13205 1 149.00000 418.400000
12875 6205 13977 1 149.00000 418.400000
12875 6206 15700 1 149.00000 418.400000
12875 6207 14531 1 149.00000 418.400000
12876 6208 14120 1 149.00000 418.400000
12876 6209 14112 1 149.00000 418.400000
12877 6210 14569 1 149.00000 418.400000
12877 6211 15574 1 149.00000 418.400000
12877 6212 14199 1 149.00000 418.400000
12877 6213 15938 1 149.00000 418.400000
12878 6214 13090 1 149.00000 418.400000
12879 6215 13429 1 149.00000 418.400000
12879 6216 13043 1 149.00000 418.400000
12879 6217 13694 1 149.00000 418.400000
12880 6218 14810 1 149.00000 418.400000
12880 6219 24108 1 149.00000 418.400000
12881 6220 15282 1 149.00000 418.400000
12882 6221 16094 1 149.00000 418.400000
12583 6222 12882 1 149.00000 418.400000
12883 6223 15340 1 149.00000 418.400000
12883 6224 23253 1 149.00000 418.400000
12883 6225 24408 1 149.00000 418.400000
12884 6226 14408 1 149.00000 418.400000
12884 6227 15753 1 149.00000 418.400000
12884 6228 13824 1 149.00000 418.400000
14988 6229 16343 1 149.00000 418.400000
16174 6230 22017 1 149.00000 418.400000
13809 6231 22017 1 149.00000 418.400000
22017 6232 23841 1 149.00000 418.400000
20037 6233 22029 1 149.00000 418.400000
12289 6234 13723 1 149.00000 418.400000
12885 6235 18037 1 149.00000 418.400000
12886 6236 14026 1 149.00000 418.400000
12886 6237 13264 1 149.00000 418.400000
12886 6238 24081 1 149.00000 418.400000
12887 6239 15608 1 149.00000 418.400000
12887 6240 13652 1 149.00000 418.400000
12887 6241 16069 1 149.00000 418.400000
12887 6242 16126 1 149.00000 418.400000
12888 6243 13560 1 149.00000 418.400000
12888 6244 14863 1 149.00000 418.400000
12889 6245 15875 1 149.00000 418.400000
12890 6246 14782 1 149.00000 418.400000
12890 6247 15523 1 149.00000 418.400000
12891 6248 15314 1 149.00000 418.400000
12891 6249 14176 1 149.00000 418.400000
12891 6250 13015 1 149.00000 418.400000
12892 6251 24694 1 149.00000 418.400000
12893 6252 15615 1 149.00000 418.400000
12893 6253 14094 1 149.00000 418.400000
12893 6254 13956 1 149.00000 418.400000
12894 6255 14119 1 149.00000 418.400000
14010 6256 14664 1 149.00000 418.400000
12894 6257 13155 1 149.00000 418.400000
12894 6258 14010 1 149.00000 418.400000
12895 6259 13934 1 149.00000 418.400000
12895 6260 15926 1 149.00000 418.400000
12895 6261 15357 1 149.00000 418.400000
22041 6262 24564 1 149.00000 418.400000
22041 6263 24189 1 149.00000 418.400000
13894 6264 22041 1 149.00000 418.400000
12896 6265 13216 1 149.00000 418.400000
11308 6266 15423 1 149.00000 418.400000
16357 6267 24225 1 149.00000 418.400000
12898 6268 16015 1 149.00000 418.400000
12898 6269 15292 1 149.00000 418.400000
12898 6270 14426 1 149.00000 418.400000
12898 6271 15651 1 149.00000 418.400000
12899 6272 15349 1 149.00000 418.400000
12899 6273 15180 1 149.00000 418.400000
12899 6274 14351 1 149.00000 418.400000
13708 6275 14351 1 149.00000 418.400000
13581 6276 22053 1 149.00000 418.400000
13504 6277 22053 1 149.00000 418.400000
12900 6278 16062 1 149.00000 418.400000
12900 6279 14607 1 149.00000 418.400000
12900 6280 15860 1 149.00000 418.400000
12900 6281 14772 1 149.00000 418.400000
12901 6282 16122 1 149.00000 418.400000
12099 6283 12902 1 149.00000 418.400000
12902 6284 15746 1 149.00000 418.400000
12902 6285 14789 1 149.00000 418.400000
12903 6286 15437 1 149.00000 418.400000
12903 6287 15611 1 149.00000 418.400000
12904 6288 16005 1 149.00000 418.400000
12904 6289 15722 1 149.00000 418.400000
12905 6290 16014 1 149.00000 418.400000
12905 6291 15763 1 149.00000 418.400000
12906 6292 14241 1 149.00000 418.400000
12906 6293 14739 1 149.00000 418.400000
12906 6294 13703 1 149.00000 418.400000
12907 6295 15496 1 149.00000 418.400000
12907 6296 15448 1 149.00000 418.400000
12908 6297 15486 1 149.00000 418.400000
12908 6298 15563 1 149.00000 418.400000
12908 6299 15093 1 149.00000 418.400000
12908 6300 15185 1 149.00000 418.400000
12909 6301 14175 1 149.00000 418.400000
12909 6302 15833 1 149.00000 418.400000
12909 6303 24624 1 149.00000 418.400000
12910 6304 15762 1 149.00000 418.400000
12910 6305 15714 1 149.00000 418.400000
12911 6306 13916 1 149.00000 418.400000
12911 6307 23955 1 149.00000 418.400000
12911 6308 15948 1 149.00000 418.400000
14639 6309 22065 1 149.00000 418.400000
22065 6310 23505 1 149.00000 418.400000
12912 6311 13495 1 149.00000 418.400000
12912 6312 14058 1 149.00000 418.400000
12912 6313 12932 1 149.00000 418.400000
16371 6314 23979 1 149.00000 418.400000
15104 6315 16371 1 149.00000 418.400000
12913 6316 15722 1 149.00000 418.400000
12913 6317 15526 1 149.00000 418.400000
12913 6318 13631 1 149.00000 418.400000
12914 6319 14623 1 149.00000 418.400000
12914 6320 14269 1 149.00000 418.400000
12858 6321 12914 1 149.00000 418.400000
12914 6322 15998 1 149.00000 418.400000
12915 6323 13422 1 149.00000 418.400000
12915 6324 15006 1 149.00000 418.400000
12916 6325 16057 1 149.00000 418.400000
12916 6326 13757 1 149.00000 418.400000
12916 6327 13337 1 149.00000 418.400000
12917 6328 16061 1 149.00000 418.400000
12917 6329 16124 1 149.00000 418.400000
12917 6330 15472 1 149.00000 418.400000
12918 6331 14331 1 149.00000 418.400000
12918 6332 15961 1 149.00000 418.400000
12918 6333 15018 1 149.00000 418.400000
12918 6334 13662 1 149.00000 418.400000
22077 6335 23817 1 149.00000 418.400000
12919 6336 14051 1 149.00000 418.400000
14051 6337 15538 1 149.00000 418.400000
12920 6338 13406 1 149.00000 418.400000
12920 6339 15856 1 149.00000 418.400000
12921 6340 16204 1 149.00000 418.400000
12921 6341 24591 1 149.00000 418.400000
12921 6342 14947 1 149.00000 418.400000
12922 6343 15264 1 149.00000 418.400000
15264 6344 15347 1 149.00000 418.400000
12922 6345 15883 1 149.00000 418.400000
12923 6346 13223 1 149.00000 418.400000
12923 6347 14994 1 149.00000 418.400000
12923 6348 16130 1 149.00000 418.400000
12923 6349 13079 1 149.00000 418.400000
16385 6350 23745 1 149.00000 418.400000
16069 6351 16385 1 149.00000 418.400000
12924 6352 16021 1 149.00000 418.400000
12924 6353 15839 1 149.00000 418.400000
12925 6354 13083 1 149.00000 418.400000
12925 6355 16195 1 149.00000 418.400000
12542 6356 15328 1 149.00000 418.400000
12926 6357 13934 1 149.00000 418.400000
12927 6358 13622 1 149.00000 418.400000
12927 6359 14853 1 149.00000 418.400000
12928 6360 15347 1 149.00000 418.400000
13679 6361 15157 1 149.00000 418.400000
12928 6362 14644 1 149.00000 418.400000
12928 6363 13679 1 149.00000 418.400000
12929 6364 22809 1 149.00000 418.400000
12929 6365 14035 1 149.00000 418.400000
12929 6366 24282 1 149.00000 418.400000
12929 6367 14384 1 149.00000 418.400000
12930 6368 13121 1 149.00000 418.400000
12419 6369 12930 1 149.00000 418.400000
12930 6370 13796 1 149.00000 418.400000
12931 6371 14834 1 149.00000 418.400000
12931 6372 14287 1 149.00000 418.400000
12931 6373 15033 1 149.00000 418.400000
12932 6374 16014 1 149.00000 418.400000
12932 6375 15147 1 149.00000 418.400000
12933 6376 14655 1 149.00000 418.400000
12933 6377 14866 1 149.00000 418.400000
15608 6378 22089 1 149.00000 418.400000
16805 6379 22089 1 149.00000 418.400000
22089 6380 23745 1 149.00000 418.400000
12934 6381 15862 1 149.00000 418.400000
14970 6382 16399 1 149.00000 418.400000
16483 6383 22101 1 149.00000 418.400000
22101 6384 23817 1 149.00000 418.400000
13803 6385 22113 1 149.00000 418.400000
22113 6386 24486 1 149.00000 418.400000
12935 6387 13574 1 149.00000 418.400000
12935 6388 14032 1 149.00000 418.400000
12935 6389 14422 1 149.00000 418.400000
12935 6390 15570 1 149.00000 418.400000
12936 6391 15403 1 149.00000 418.400000
12936 6392 12940 1 149.00000 418.400000
12936 6393 15925 1 149.00000 418.400000
12936 6394 16044 1 149.00000 418.400000
13183 6395 22125 1 149.00000 418.400000
22125 6396 24252 1 149.00000 418.400000
14147 6397 22125 1 149.00000 418.400000
12937 6398 13066 1 149.00000 418.400000
12937 6399 15369 1 149.00000 418.400000
13066 6400 14527 1 149.00000 418.400000
14606 6401 15820 1 149.00000 418.400000
12938 6402 13537 1 149.00000 418.400000
12938 6403 14577 1 149.00000 418.400000
16069 6404 22137 1 149.00000 418.400000
14815 6405 22137 1 149.00000 418.400000
12951 6406 22137 1 149.00000 418.400000
12939 6407 13323 1 149.00000 418.400000
12939 6408 15629 1 149.00000 418.400000
12940 6409 14586 1 149.00000 418.400000
12941 6410 13333 1 149.00000 418.400000
12941 6411 15432 1 149.00000 418.400000
14295 6412 15428 1 149.00000 418.400000
14273 6413 15428 1 149.00000 418.400000
12942 6414 15428 1 149.00000 418.400000
12943 6415 24018 1 149.00000 418.400000
12944 6416 15813 1 149.00000 418.400000
15412 6417 18191 1 149.00000 418.400000
12944 6418 15412 1 149.00000 418.400000
12945 6419 13232 1 149.00000 418.400000
12945 6420 15743 1 149.00000 418.400000
12946 6421 14042 1 149.00000 418.400000
12946 6422 15215 1 149.00000 418.400000
13080 6423 22149 1 149.00000 418.400000
12947 6424 13800 1 149.00000 418.400000
12947 6425 24462 1 149.00000 418.400000
12947 6426 13950 1 149.00000 418.400000
12947 6427 22605 1 149.00000 418.400000
12948 6428 15380 1 149.00000 418.400000
12948 6429 14163 1 149.00000 418.400000
12949 6430 15112 1 149.00000 418.400000
12949 6431 13337 1 149.00000 418.400000
12950 6432 15653 1 149.00000 418.400000
12950 6433 13352 1 149.00000 418.400000
12951 6434 14505 1 149.00000 418.400000
12951 6435 24135 1 149.00000 418.400000
12951 6436 14785 1 149.00000 418.400000
15953 6437 24135 1 149.00000 418.400000
12952 6438 13670 1 149.00000 418.400000
12952 6439 13931 1 149.00000 418.400000
12953 6440 18009 1 149.00000 418.400000
12953 6441 24393 1 149.00000 418.400000
12953 6442 15166 1 149.00000 418.400000
12954 6443 13436 1 149.00000 418.400000
12954 6444 13222 1 149.00000 418.400000
12954 6445 13296 1 149.00000 418.400000
12954 6446 13604 1 149.00000 418.400000
12955 6447 13344 1 149.00000 418.400000
12955 6448 23037 1 149.00000 418.400000
12955 6449 13684 1 149.00000 418.400000
12956 6450 13349 1 149.00000 418.400000
12956 6451 14524 1 149.00000 418.400000
12956 6452 24264 1 149.00000 418.400000
12957 6453 14206 1 149.00000 418.400000
12957 6454 15158 1 149.00000 418.400000
12957 6455 15370 1 149.00000 418.400000
12958 6456 13583 1 149.00000 418.400000
12958 6457 13029 1 149.00000 418.400000
12958 6458 13900 1 149.00000 418.400000
12958 6459 15550 1 149.00000 418.400000
12959 6460 14156 1 149.00000 418.400000
12959 6461 13536 1 149.00000 418.400000
12959 6462 13811 1 149.00000 418.400000
12959 6463 14908 1 149.00000 418.400000
12960 6464 14184 1 149.00000 418.400000
12960 6465 14965 1 149.00000 418.400000
12960 6466 15438 1 149.00000 418.400000
15008 6467 22161 1 149.00000 418.400000
12234 6468 13683 1 149.00000 418.400000
12961 6469 13572 1 149.00000 418.400000
12234 6470 14402 1 149.00000 418.400000
12962 6471 13727 1 149.00000 418.400000
12962 6472 14221 1 149.00000 418.400000
12963 6473 15299 1 149.00000 418.400000
12963 6474 14971 1 149.00000 418.400000
12963 6475 15382 1 149.00000 418.400000
12964 6476 13123 1 149.00000 418.400000
12964 6477 14546 1 149.00000 418.400000
12964 6478 15162 1 149.00000 418.400000
12569 6479 12965 1 149.00000 418.400000
12966 6480 15470 1 149.00000 418.400000
12966 6481 13658 1 149.00000 418.400000
12966 6482 14720 1 149.00000 418.400000
12967 6483 14571 1 149.00000 418.400000
12967 6484 15182 1 149.00000 418.400000
12967 6485 14030 1 149.00000 418.400000
16749 6486 22173 1 149.00000 418.400000
14063 6487 22173 1 149.00000 418.400000
14063 6488 23541 1 149.00000 418.400000
12968 6489 23928 1 149.00000 418.400000
12969 6490 13707 1 149.00000 418.400000
12969 6491 15069 1 149.00000 418.400000
12032 6492 17925 1 149.00000 418.400000
12970 6493 14155 1 149.00000 418.400000
12970 6494 15736 1 149.00000 418.400000
12970 6495 15234 1 149.00000 418.400000
11837 6496 12970 1 149.00000 418.400000
12971 6497 13648 1 149.00000 418.400000
12971 6498 14494 1 149.00000 418.400000
12971 6499 14056 1 149.00000 418.400000
12971 6500 24579 1 149.00000 418.400000
12972 6501 14528 1 149.00000 418.400000
12972 6502 13089 1 149.00000 418.400000
12973 6503 13922 1 149.00000 418.400000
12973 6504 15615 1 149.00000 418.400000
12974 6505 15900 1 149.00000 418.400000
12974 6506 13275 1 149.00000 418.400000
12975 6507 15337 1 149.00000 418.400000
12976 6508 14746 1 149.00000 418.400000
12976 6509 14715 1 149.00000 418.400000
12976 6510 13215 1 149.00000 418.400000
12976 6511 14334 1 149.00000 418.400000
12977 6512 15975 1 149.00000 418.400000
12978 6513 15287 1 149.00000 418.400000
12978 6514 14651 1 149.00000 418.400000
12979 6515 22905 1 149.00000 418.400000
12979 6516 15259 1 149.00000 418.400000
12980 6517 24312 1 149.00000 418.400000
12980 6518 13241 1 149.00000 418.400000
23994 6519 24312 1 149.00000 418.400000
12981 6520 15834 1 149.00000 418.400000
12981 6521 13915 1 149.00000 418.400000
12982 6522 13056 1 149.00000 418.400000
12982 6523 14990 1 149.00000 418.400000
12982 6524 13726 1 149.00000 418.400000
15896 6525 22185 1 149.00000 418.400000
13729 6526 22197 1 149.00000 418.400000
12983 6527 13145 1 149.00000 418.400000
12983 6528 13861 1 149.00000 418.400000
12983 6529 16091 1 149.00000 418.400000
12984 6530 16021 1 149.00000 418.400000
12984 6531 15605 1 149.00000 418.400000
12985 6532 13710 1 149.00000 418.400000
12985 6533 23922 1 149.00000 418.400000
12985 6534 13238 1 149.00000 418.400000
12985 6535 13026 1 149.00000 418.400000
12986 6536 13851 1 149.00000 418.400000
12986 6537 13493 1 149.00000 418.400000
12987 6538 24588 1 149.00000 418.400000
12987 6539 14203 1 149.00000 418.400000
12989 6540 15074 1 149.00000 418.400000
12989 6541 15226 1 149.00000 418.400000
12989 6542 14176 1 149.00000 418.400000
12989 6543 15993 1 149.00000 418.400000
12990 6544 13109 1 149.00000 418.400000
12990 6545 13678 1 149.00000 418.400000
13678 6546 14178 1 149.00000 418.400000
11471 6547 13498 1 149.00000 418.400000
11471 6548 15318 1 149.00000 418.400000
11471 6549 15284 1 149.00000 418.400000
12992 6550 13902 1 149.00000 418.400000
12992 6551 13471 1 149.00000 418.400000
13471 6552 15512 1 149.00000 418.400000
12993 6553 13313 1 149.00000 418.400000
12993 6554 14924 1 149.00000 418.400000
11376 6555 12994 1 149.00000 418.400000
15583 6556 22209 1 149.00000 418.400000
22209 6557 22281 1 149.00000 418.400000
16441 6558 23904 1 149.00000 418.400000
12995 6559 15930 1 149.00000 418.400000
12995 6560 22257 1 149.00000 418.400000
12995 6561 14106 1 149.00000 418.400000
12995 6562 16116 1 149.00000 418.400000
12996 6563 14725 1 149.00000 418.400000
12996 6564 15617 1 149.00000 418.400000
12996 6565 14629 1 149.00000 418.400000
15638 6566 22221 1 149.00000 418.400000
22221 6567 24546 1 149.00000 418.400000
22221 6568 23505 1 149.00000 418.400000
22233 6569 24015 1 149.00000 418.400000
15726 6570 22233 1 149.00000 418.400000
12997 6571 15808 1 149.00000 418.400000
22245 6572 24033 1 149.00000 418.400000
14962 6573 22245 1 149.00000 418.400000
22761 6574 24033 1 149.00000 418.400000
12998 6575 15968 1 149.00000 418.400000
12998 6576 14787 1 149.00000 418.400000
12998 6577 14976 1 149.00000 418.400000
12999 6578 15982 1 149.00000 418.400000
12999 6579 14837 1 149.00000 418.400000
12999 6580 13427 1 149.00000 418.400000
15456 6581 16455 1 149.00000 418.400000
13000 6582 14816 1 149.00000 418.400000
13000 6583 13468 1 149.00000 418.400000
13000 6584 15542 1 149.00000 418.400000
13000 6585 14606 1 149.00000 418.400000
13001 6586 14811 1 149.00000 418.400000
14811 6587 15512 1 149.00000 418.400000
13703 6588 14511 1 149.00000 418.400000
13002 6589 14511 1 149.00000 418.400000
13002 6590 14430 1 149.00000 418.400000
13002 6591 13607 1 149.00000 418.400000
13003 6592 13463 1 149.00000 418.400000
13003 6593 13049 1 149.00000 418.400000
13004 6594 15246 1 149.00000 418.400000
13004 6595 24300 1 149.00000 418.400000
13004 6596 15092 1 149.00000 418.400000
13005 6597 15540 1 149.00000 418.400000
13005 6598 14308 1 149.00000 418.400000
13005 6599 13620 1 149.00000 418.400000
13863 6600 22257 1 149.00000 418.400000
22257 6601 23982 1 149.00000 418.400000
13006 6602 14601 1 149.00000 418.400000
13006 6603 15152 1 149.00000 418.400000
13006 6604 14488 1 149.00000 418.400000
13006 6605 15353 1 149.00000 418.400000
13007 6606 14139 1 149.00000 418.400000
13007 6607 14453 1 149.00000 418.400000
13008 6608 14257 1 149.00000 418.400000
13008 6609 13980 1 149.00000 418.400000
13008 6610 14932 1 149.00000 418.400000
13008 6611 13536 1 149.00000 418.400000
13009 6612 15022 1 149.00000 418.400000
13009 6613 14442 1 149.00000 418.400000
13009 6614 15327 1 149.00000 418.400000
13010 6615 23979 1 149.00000 418.400000
13002 6616 13010 1 149.00000 418.400000
13010 6617 24474 1 149.00000 418.400000
13011 6618 14522 1 149.00000 418.400000
13011 6619 15492 1 149.00000 418.400000
13012 6620 14052 1 149.00000 418.400000
13012 6621 15786 1 149.00000 418.400000
13419 6622 14052 1 149.00000 418.400000
13013 6623 14978 1 149.00000 418.400000
13013 6624 14652 1 149.00000 418.400000
13014 6625 15203 1 149.00000 418.400000
13014 6626 14603 1 149.00000 418.400000
13014 6627 15326 1 149.00000 418.400000
13014 6628 15043 1 149.00000 418.400000
13015 6629 14985 1 149.00000 418.400000
13015 6630 14580 1 149.00000 418.400000
13016 6631 14206 1 149.00000 418.400000
13016 6632 15426 1 149.00000 418.400000
13018 6633 14016 1 149.00000 418.400000
13018 6634 14860 1 149.00000 418.400000
13018 6635 14195 1 149.00000 418.400000
13019 6636 13940 1 149.00000 418.400000
13019 6637 14121 1 149.00000 418.400000
13019 6638 24405 1 149.00000 418.400000
13315 6639 16469 1 149.00000 418.400000
13020 6640 15774 1 149.00000 418.400000
13020 6641 13910 1 149.00000 418.400000
13020 6642 24111 1 149.00000 418.400000
22269 6643 23970 1 149.00000 418.400000
13021 6644 15625 1 149.00000 418.400000
12899 6645 13021 1 149.00000 418.400000
13021 6646 16889 1 149.00000 418.400000
14700 6647 22281 1 149.00000 418.400000
16041 6648 22293 1 149.00000 418.400000
14327 6649 22293 1 149.00000 418.400000
18561 6650 22293 1 149.00000 418.400000
13022 6651 13391 1 149.00000 418.400000
13022 6652 13467 1 149.00000 418.400000
13022 6653 14790 1 149.00000 418.400000
13022 6654 15567 1 149.00000 418.400000
13023 6655 13130 1 149.00000 418.400000
13023 6656 13324 1 149.00000 418.400000
13023 6657 13651 1 149.00000 418.400000
14312 6658 16483 1 149.00000 418.400000
13024 6659 15710 1 149.00000 418.400000
13024 6660 13251 1 149.00000 418.400000
13024 6661 14091 1 149.00000 418.400000
13025 6662 13480 1 149.00000 418.400000
13025 6663 14434 1 149.00000 418.400000
13026 6664 18009 1 149.00000 418.400000
13026 6665 14273 1 149.00000 418.400000
13027 6666 23085 1 149.00000 418.400000
13027 6667 15158 1 149.00000 418.400000
13028 6668 13384 1 149.00000 418.400000
13028 6669 14299 1 149.00000 418.400000
13028 6670 15333 1 149.00000 418.400000
13029 6671 14374 1 149.00000 418.400000
13029 6672 14629 1 149.00000 418.400000
13030 6673 16088 1 149.00000 418.400000
13030 6674 15383 1 149.00000 418.400000
13030 6675 14296 1 149.00000 418.400000
13031 6676 13148 1 149.00000 418.400000
13031 6677 16194 1 149.00000 418.400000
13031 6678 13174 1 149.00000 418.400000
13032 6679 15547 1 149.00000 418.400000
13032 6680 15658 1 149.00000 418.400000
13032 6681 15236 1 149.00000 418.400000
13032 6682 14687 1 149.00000 418.400000
13033 6683 13570 1 149.00000 418.400000
13034 6684 15411 1 149.00000 418.400000
13035 6685 15203 1 149.00000 418.400000
13035 6686 13952 1 149.00000 418.400000
13036 6687 13332 1 149.00000 418.400000
13037 6688 16101 1 149.00000 418.400000
13037 6689 14100 1 149.00000 418.400000
13037 6690 14623 1 149.00000 418.400000
13038 6691 13152 1 149.00000 418.400000
13038 6692 15124 1 149.00000 418.400000
13038 6693 15970 1 149.00000 418.400000
13038 6694 14491 1 149.00000 418.400000
13039 6695 23313 1 149.00000 418.400000
13039 6696 13429 1 149.00000 418.400000
13039 6697 13120 1 149.00000 418.400000
13039 6698 24567 1 149.00000 418.400000
13040 6699 14693 1 149.00000 418.400000
13040 6700 15325 1 149.00000 418.400000
13040 6701 13903 1 149.00000 418.400000
13040 6702 13596 1 149.00000 418.400000
13041 6703 14218 1 149.00000 418.400000
14218 6704 16114 1 149.00000 418.400000
13042 6705 15225 1 149.00000 418.400000
13042 6706 13327 1 149.00000 418.400000
13043 6707 13801 1 149.00000 418.400000
13043 6708 14061 1 149.00000 418.400000
13044 6709 13894 1 149.00000 418.400000
13044 6710 15127 1 149.00000 418.400000
13045 6711 15565 1 149.00000 418.400000
13046 6712 15057 1 149.00000 418.400000
13046 6713 14267 1 149.00000 418.400000
13046 6714 16205 1 149.00000 418.400000
12518 6715 13046 1 149.00000 418.400000
13047 6716 13374 1 149.00000 418.400000
13048 6717 14407 1 149.00000 418.400000
13048 6718 15654 1 149.00000 418.400000
13048 6719 13923 1 149.00000 418.400000
13048 6720 13643 1 149.00000 418.400000
22305 6721 23181 1 149.00000 418.400000
15635 6722 22305 1 149.00000 418.400000
13759 6723 22305 1 149.00000 418.400000
13049 6724 15569 1 149.00000 418.400000
14160 6725 16497 1 149.00000 418.400000
14255 6726 16511 1 149.00000 418.400000
13050 6727 14767 1 149.00000 418.400000
13050 6728 14966 1 149.00000 418.400000
13051 6729 15277 1 149.00000 418.400000
13051 6730 14706 1 149.00000 418.400000
13051 6731 16038 1 149.00000 418.400000
13052 6732 13157 1 149.00000 418.400000
13052 6733 24291 1 149.00000 418.400000
23946 6734 24426 1 149.00000 418.400000
24426 6735 24606 1 149.00000 418.400000
13053 6736 14272 1 149.00000 418.400000
11677 6737 17491 1 149.00000 418.400000
13054 6738 15082 1 149.00000 418.400000
13054 6739 13862 1 149.00000 418.400000
13054 6740 14705 1 149.00000 418.400000
17897 6741 22317 1 149.00000 418.400000
13684 6742 22317 1 149.00000 418.400000
13055 6743 14472 1 149.00000 418.400000
13055 6744 15382 1 149.00000 418.400000
13055 6745 15343 1 149.00000 418.400000
13056 6746 14613 1 149.00000 418.400000
13056 6747 13236 1 149.00000 418.400000
13057 6748 15919 1 149.00000 418.400000
13057 6749 13208 1 149.00000 418.400000
13057 6750 13512 1 149.00000 418.400000
13057 6751 16095 1 149.00000 418.400000
13058 6752 16199 1 149.00000 418.400000
13058 6753 13473 1 149.00000 418.400000
13058 6754 13289 1 149.00000 418.400000
13058 6755 13400 1 149.00000 418.400000
14362 6756 22329 1 149.00000 418.400000
14203 6757 22329 1 149.00000 418.400000
13059 6758 15012 1 149.00000 418.400000
13060 6759 13829 1 149.00000 418.400000
13060 6760 15465 1 149.00000 418.400000
13060 6761 13379 1 149.00000 418.400000
13286 6762 15102 1 149.00000 418.400000
15085 6763 15102 1 149.00000 418.400000
13061 6764 16163 1 149.00000 418.400000
13323 6765 14938 1 149.00000 418.400000
13062 6766 15858 1 149.00000 418.400000
13062 6767 14938 1 149.00000 418.400000
12116 6768 13063 1 149.00000 418.400000
13063 6769 13801 1 149.00000 418.400000
13063 6770 14129 1 149.00000 418.400000
13064 6771 15020 1 149.00000 418.400000
13064 6772 15391 1 149.00000 418.400000
13064 6773 15085 1 149.00000 418.400000
13065 6774 14043 1 149.00000 418.400000
13065 6775 15919 1 149.00000 418.400000
13065 6776 15980 1 149.00000 418.400000
13066 6777 14123 1 149.00000 418.400000
12937 6778 16042 1 149.00000 418.400000
13066 6779 14214 1 149.00000 418.400000
13925 6780 15407 1 149.00000 418.400000
13067 6781 13925 1 149.00000 418.400000
13067 6782 15897 1 149.00000 418.400000
13068 6783 15479 1 149.00000 418.400000
13068 6784 15497 1 149.00000 418.400000
11849 6785 15283 1 149.00000 418.400000
13069 6786 14485 1 149.00000 418.400000
15283 6787 16213 1 149.00000 418.400000
13070 6788 13518 1 149.00000 418.400000
13070 6789 13455 1 149.00000 418.400000
13070 6790 14339 1 149.00000 418.400000
13071 6791 13300 1 149.00000 418.400000
13071 6792 14826 1 149.00000 418.400000
13071 6793 14039 1 149.00000 418.400000
12141 6794 14460 1 149.00000 418.400000
13072 6795 15412 1 149.00000 418.400000
13073 6796 16085 1 149.00000 418.400000
13073 6797 14125 1 149.00000 418.400000
13074 6798 14508 1 149.00000 418.400000
13074 6799 15643 1 149.00000 418.400000
13074 6800 13544 1 149.00000 418.400000
13075 6801 15907 1 149.00000 418.400000
13075 6802 13093 1 149.00000 418.400000
13075 6803 15529 1 149.00000 418.400000
13076 6804 16058 1 149.00000 418.400000
13076 6805 15926 1 149.00000 418.400000
13076 6806 15189 1 149.00000 418.400000
13077 6807 15310 1 149.00000 418.400000
13077 6808 13616 1 149.00000 418.400000
13077 6809 16164 1 149.00000 418.400000
12613 6810 13188 1 149.00000 418.400000
13079 6811 15950 1 149.00000 418.400000
13080 6812 15527 1 149.00000 418.400000
13081 6813 14215 1 149.00000 418.400000
13081 6814 14848 1 149.00000 418.400000
12491 6815 13082 1 149.00000 418.400000
13082 6816 15213 1 149.00000 418.400000
13083 6817 14783 1 149.00000 418.400000
13083 6818 15156 1 149.00000 418.400000
13084 6819 14597 1 149.00000 418.400000
12764 6820 13084 1 149.00000 418.400000
13084 6821 15887 1 149.00000 418.400000
12992 6822 13084 1 149.00000 418.400000
15922 6823 22353 1 149.00000 418.400000
15781 6824 22353 1 149.00000 418.400000
13086 6825 14312 1 149.00000 418.400000
13086 6826 15332 1 149.00000 418.400000
13086 6827 17029 1 149.00000 418.400000
13087 6828 15603 1 149.00000 418.400000
13087 6829 16093 1 149.00000 418.400000
13087 6830 15126 1 149.00000 418.400000
13088 6831 13128 1 149.00000 418.400000
13088 6832 13842 1 149.00000 418.400000
13089 6833 15417 1 149.00000 418.400000
13089 6834 13719 1 149.00000 418.400000
13090 6835 18247 1 149.00000 418.400000
14284 6836 23445 1 149.00000 418.400000
13090 6837 14284 1 149.00000 418.400000
13091 6838 16166 1 149.00000 418.400000
13091 6839 14415 1 149.00000 418.400000
13092 6840 14587 1 149.00000 418.400000
13093 6841 14538 1 149.00000 418.400000
13093 6842 14525 1 149.00000 418.400000
13094 6843 24255 1 149.00000 418.400000
13094 6844 13366 1 149.00000 418.400000
13095 6845 14537 1 149.00000 418.400000
13095 6846 14209 1 149.00000 418.400000
13095 6847 15274 1 149.00000 418.400000
13095 6848 15685 1 149.00000 418.400000
13096 6849 15147 1 149.00000 418.400000
13096 6850 14652 1 149.00000 418.400000
13096 6851 13495 1 149.00000 418.400000
11413 6852 13097 1 149.00000 418.400000
11780 6853 13097 1 149.00000 418.400000
13098 6854 24222 1 149.00000 418.400000
13098 6855 15397 1 149.00000 418.400000
13099 6856 15413 1 149.00000 418.400000
13099 6857 14146 1 149.00000 418.400000
13099 6858 15050 1 149.00000 418.400000
13099 6859 15300 1 149.00000 418.400000
13100 6860 15354 1 149.00000 418.400000
12206 6861 15995 1 149.00000 418.400000
13100 6862 14317 1 149.00000 418.400000
13101 6863 15815 1 149.00000 418.400000
13102 6864 15575 1 149.00000 418.400000
13102 6865 14745 1 149.00000 418.400000
13102 6866 15925 1 149.00000 418.400000
13880 6867 16116 1 149.00000 418.400000
13103 6868 23982 1 149.00000 418.400000
13103 6869 13880 1 149.00000 418.400000
13104 6870 14642 1 149.00000 418.400000
13104 6871 14446 1 149.00000 418.400000
13105 6872 15493 1 149.00000 418.400000
13105 6873 14416 1 149.00000 418.400000
13105 6874 15769 1 149.00000 418.400000
13106 6875 14041 1 149.00000 418.400000
13106 6876 13819 1 149.00000 418.400000
13106 6877 15587 1 149.00000 418.400000
13107 6878 14601 1 149.00000 418.400000
13107 6879 15313 1 149.00000 418.400000
13108 6880 16126 1 149.00000 418.400000
13108 6881 14630 1 149.00000 418.400000
13108 6882 13652 1 149.00000 418.400000
11887 6883 13109 1 149.00000 418.400000
13109 6884 14010 1 149.00000 418.400000
13110 6885 15392 1 149.00000 418.400000
13110 6886 15910 1 149.00000 418.400000
13111 6887 13642 1 149.00000 418.400000
13112 6888 13444 1 149.00000 418.400000
13113 6889 23925 1 149.00000 418.400000
13113 6890 13609 1 149.00000 418.400000
13114 6891 15472 1 149.00000 418.400000
13114 6892 24066 1 149.00000 418.400000
13115 6893 13900 1 149.00000 418.400000
13115 6894 14442 1 149.00000 418.400000
13116 6895 14324 1 149.00000 418.400000
13116 6896 14986 1 149.00000 418.400000
14986 6897 15173 1 149.00000 418.400000
13116 6898 15213 1 149.00000 418.400000
22365 6899 23241 1 149.00000 418.400000
15309 6900 22365 1 149.00000 418.400000
16525 6901 24273 1 149.00000 418.400000
13117 6902 14448 1 149.00000 418.400000
13117 6903 13784 1 149.00000 418.400000
13117 6904 14759 1 149.00000 418.400000
13118 6905 13554 1 149.00000 418.400000
13119 6906 13278 1 149.00000 418.400000
13119 6907 15436 1 149.00000 418.400000
13119 6908 15351 1 149.00000 418.400000
13119 6909 24234 1 149.00000 418.400000
13120 6910 13872 1 149.00000 418.400000
13121 6911 14753 1 149.00000 418.400000
13121 6912 13325 1 149.00000 418.400000
13122 6913 24363 1 149.00000 418.400000
13122 6914 14499 1 149.00000 418.400000
13122 6915 24594 1 149.00000 418.400000
13323 6916 22377 1 149.00000 418.400000
14329 6917 22377 1 149.00000 418.400000
13123 6918 14044 1 149.00000 418.400000
13123 6919 14710 1 149.00000 418.400000
13123 6920 14817 1 149.00000 418.400000
15971 6921 16539 1 149.00000 418.400000
13124 6922 13621 1 149.00000 418.400000
13124 6923 14128 1 149.00000 418.400000
14128 6924 23289 1 149.00000 418.400000
13125 6925 13332 1 149.00000 418.400000
14622 6926 16553 1 149.00000 418.400000
13126 6927 14784 1 149.00000 418.400000
13126 6928 24096 1 149.00000 418.400000
13126 6929 15009 1 149.00000 418.400000
13127 6930 13705 1 149.00000 418.400000
22389 6931 24504 1 149.00000 418.400000
22389 6932 23301 1 149.00000 418.400000
13128 6933 13818 1 149.00000 418.400000
13128 6934 15119 1 149.00000 418.400000
13129 6935 13855 1 149.00000 418.400000
13129 6936 14755 1 149.00000 418.400000
13129 6937 15081 1 149.00000 418.400000
13130 6938 15084 1 149.00000 418.400000
13130 6939 24639 1 149.00000 418.400000
13130 6940 13761 1 149.00000 418.400000
13131 6941 15371 1 149.00000 418.400000
13131 6942 15317 1 149.00000 418.400000
13131 6943 13400 1 149.00000 418.400000
13132 6944 15652 1 149.00000 418.400000
13132 6945 14477 1 149.00000 418.400000
13133 6946 13894 1 149.00000 418.400000
13133 6947 15584 1 149.00000 418.400000
14161 6948 14614 1 149.00000 418.400000
14614 6949 14785 1 149.00000 418.400000
14614 6950 22401 1 149.00000 418.400000
13134 6951 15276 1 149.00000 418.400000
13134 6952 13365 1 149.00000 418.400000
13134 6953 15355 1 149.00000 418.400000
13134 6954 15275 1 149.00000 418.400000
13135 6955 16054 1 149.00000 418.400000
13135 6956 14522 1 149.00000 418.400000
13135 6957 13461 1 149.00000 418.400000
13136 6958 15628 1 149.00000 418.400000
12256 6959 16195 1 149.00000 418.400000
13137 6960 14027 1 149.00000 418.400000
13113 6961 22413 1 149.00000 418.400000
13138 6962 14448 1 149.00000 418.400000
13138 6963 13446 1 149.00000 418.400000
13446 6964 14208 1 149.00000 418.400000
13362 6965 14889 1 149.00000 418.400000
13139 6966 14697 1 149.00000 418.400000
13139 6967 14889 1 149.00000 418.400000
13140 6968 14558 1 149.00000 418.400000
14558 6969 14999 1 149.00000 418.400000
13141 6970 14510 1 149.00000 418.400000
12146 6971 13355 1 149.00000 418.400000
13142 6972 14202 1 149.00000 418.400000
13142 6973 14011 1 149.00000 418.400000
13142 6974 15569 1 149.00000 418.400000
13143 6975 14980 1 149.00000 418.400000
13143 6976 14319 1 149.00000 418.400000
13143 6977 13359 1 149.00000 418.400000
14421 6978 22425 1 149.00000 418.400000
13144 6979 15627 1 149.00000 418.400000
13144 6980 14201 1 149.00000 418.400000
13144 6981 15082 1 149.00000 418.400000
13145 6982 14709 1 149.00000 418.400000
13145 6983 14930 1 149.00000 418.400000
13146 6984 14249 1 149.00000 418.400000
13146 6985 14954 1 149.00000 418.400000
13146 6986 13469 1 149.00000 418.400000
13147 6987 24456 1 149.00000 418.400000
13147 6988 24225 1 149.00000 418.400000
13148 6989 13360 1 149.00000 418.400000
13148 6990 14702 1 149.00000 418.400000
13149 6991 15251 1 149.00000 418.400000
13149 6992 15865 1 149.00000 418.400000
13150 6993 15714 1 149.00000 418.400000
13150 6994 15956 1 149.00000 418.400000
13151 6995 13647 1 149.00000 418.400000
13151 6996 14205 1 149.00000 418.400000
13152 6997 24339 1 149.00000 418.400000
13153 6998 13764 1 149.00000 418.400000
13153 6999 13379 1 149.00000 418.400000
13154 7000 15402 1 149.00000 418.400000
13585 7001 22449 1 149.00000 418.400000
11388 7002 13155 1 149.00000 418.400000
13156 7003 15358 1 149.00000 418.400000
13156 7004 15837 1 149.00000 418.400000
13156 7005 15115 1 149.00000 418.400000
13157 7006 15151 1 149.00000 418.400000
13158 7007 14823 1 149.00000 418.400000
13158 7008 24570 1 149.00000 418.400000
13158 7009 14433 1 149.00000 418.400000
13159 7010 14075 1 149.00000 418.400000
13159 7011 15313 1 149.00000 418.400000
13159 7012 14617 1 149.00000 418.400000
13160 7013 14740 1 149.00000 418.400000
13160 7014 14091 1 149.00000 418.400000
13160 7015 15710 1 149.00000 418.400000
13160 7016 15292 1 149.00000 418.400000
13161 7017 15271 1 149.00000 418.400000
13161 7018 16021 1 149.00000 418.400000
14356 7019 22461 1 149.00000 418.400000
17771 7020 22461 1 149.00000 418.400000
13162 7021 15595 1 149.00000 418.400000
13162 7022 13300 1 149.00000 418.400000
13162 7023 16029 1 149.00000 418.400000
13163 7024 15386 1 149.00000 418.400000
13163 7025 13872 1 149.00000 418.400000
13163 7026 15243 1 149.00000 418.400000
13163 7027 15536 1 149.00000 418.400000
13164 7028 13642 1 149.00000 418.400000
13164 7029 14736 1 149.00000 418.400000
13164 7030 15980 1 149.00000 418.400000
13164 7031 13208 1 149.00000 418.400000
13165 7032 15440 1 149.00000 418.400000
13165 7033 15577 1 149.00000 418.400000
13165 7034 14193 1 149.00000 418.400000
13166 7035 13844 1 149.00000 418.400000
13166 7036 14923 1 149.00000 418.400000
13166 7037 24612 1 149.00000 418.400000
13167 7038 15820 1 149.00000 418.400000
13167 7039 14850 1 149.00000 418.400000
13167 7040 14137 1 149.00000 418.400000
13167 7041 15879 1 149.00000 418.400000
13168 7042 15026 1 149.00000 418.400000
13168 7043 14916 1 149.00000 418.400000
13169 7044 14148 1 149.00000 418.400000
13169 7045 14024 1 149.00000 418.400000
13169 7046 14937 1 149.00000 418.400000
13170 7047 15648 1 149.00000 418.400000
13170 7048 13553 1 149.00000 418.400000
13170 7049 14006 1 149.00000 418.400000
13170 7050 14515 1 149.00000 418.400000
13171 7051 14713 1 149.00000 418.400000
15687 7052 22473 1 149.00000 418.400000
13172 7053 13966 1 149.00000 418.400000
13172 7054 13434 1 149.00000 418.400000
13173 7055 16143 1 149.00000 418.400000
13174 7056 16164 1 149.00000 418.400000
13174 7057 13983 1 149.00000 418.400000
13175 7058 13760 1 149.00000 418.400000
13175 7059 13959 1 149.00000 418.400000
13175 7060 15702 1 149.00000 418.400000
13176 7061 14040 1 149.00000 418.400000
13176 7062 14909 1 149.00000 418.400000
14040 7063 15367 1 149.00000 418.400000
13176 7064 23361 1 149.00000 418.400000
15131 7065 16581 1 149.00000 418.400000
16581 7066 16693 1 149.00000 418.400000
13177 7067 14220 1 149.00000 418.400000
13177 7068 15404 1 149.00000 418.400000
13177 7069 14697 1 149.00000 418.400000
13177 7070 14036 1 149.00000 418.400000
13178 7071 15480 1 149.00000 418.400000
13178 7072 15982 1 149.00000 418.400000
13178 7073 17855 1 149.00000 418.400000
13179 7074 14683 1 149.00000 418.400000
13179 7075 13795 1 149.00000 418.400000
13179 7076 15386 1 149.00000 418.400000
13180 7077 14541 1 149.00000 418.400000
13180 7078 15087 1 149.00000 418.400000
13181 7079 15568 1 149.00000 418.400000
13181 7080 14308 1 149.00000 418.400000
13181 7081 14984 1 149.00000 418.400000
14308 7082 15753 1 149.00000 418.400000
13182 7083 14266 1 149.00000 418.400000
13182 7084 13335 1 149.00000 418.400000
12201 7085 13183 1 149.00000 418.400000
13183 7086 14566 1 149.00000 418.400000
13184 7087 14304 1 149.00000 418.400000
13184 7088 13885 1 149.00000 418.400000
13184 7089 14145 1 149.00000 418.400000
13185 7090 15644 1 149.00000 418.400000
13297 7091 15688 1 149.00000 418.400000
13185 7092 15688 1 149.00000 418.400000
13185 7093 13316 1 149.00000 418.400000
13186 7094 24312 1 149.00000 418.400000
13187 7095 15793 1 149.00000 418.400000
13187 7096 15445 1 149.00000 418.400000
13187 7097 15934 1 149.00000 418.400000
14312 7098 22485 1 149.00000 418.400000
13188 7099 22857 1 149.00000 418.400000
13188 7100 14307 1 149.00000 418.400000
13189 7101 14581 1 149.00000 418.400000
13189 7102 14370 1 149.00000 418.400000
13190 7103 13483 1 149.00000 418.400000
13190 7104 13879 1 149.00000 418.400000
13191 7105 15897 1 149.00000 418.400000
13191 7106 14127 1 149.00000 418.400000
13191 7107 14899 1 149.00000 418.400000
13192 7108 15694 1 149.00000 418.400000
13192 7109 14612 1 149.00000 418.400000
13192 7110 14775 1 149.00000 418.400000
13192 7111 15812 1 149.00000 418.400000
16186 7112 22497 1 149.00000 418.400000
22497 7113 24629 1 149.00000 418.400000
14613 7114 22497 1 149.00000 418.400000
13193 7115 14858 1 149.00000 418.400000
13193 7116 15513 1 149.00000 418.400000
13193 7117 15109 1 149.00000 418.400000
13194 7118 14386 1 149.00000 418.400000
13194 7119 14835 1 149.00000 418.400000
13194 7120 14643 1 149.00000 418.400000
13195 7121 15358 1 149.00000 418.400000
13195 7122 13666 1 149.00000 418.400000
13195 7123 13227 1 149.00000 418.400000
13196 7124 14358 1 149.00000 418.400000
13196 7125 15532 1 149.00000 418.400000
14358 7126 23919 1 149.00000 418.400000
13197 7127 24369 1 149.00000 418.400000
13197 7128 13375 1 149.00000 418.400000
13197 7129 13269 1 149.00000 418.400000
13197 7130 15741 1 149.00000 418.400000
13198 7131 15544 1 149.00000 418.400000
14466 7132 15544 1 149.00000 418.400000
13199 7133 14410 1 149.00000 418.400000
13199 7134 16057 1 149.00000 418.400000
13200 7135 13383 1 149.00000 418.400000
13200 7136 13519 1 149.00000 418.400000
13200 7137 15051 1 149.00000 418.400000
13201 7138 14538 1 149.00000 418.400000
13201 7139 14390 1 149.00000 418.400000
13201 7140 15658 1 149.00000 418.400000
22521 7141 24168 1 149.00000 418.400000
22521 7142 23685 1 149.00000 418.400000
13202 7143 13344 1 149.00000 418.400000
12621 7144 14109 1 149.00000 418.400000
13202 7145 14747 1 149.00000 418.400000
13203 7146 14390 1 149.00000 418.400000
13203 7147 15514 1 149.00000 418.400000
13203 7148 15632 1 149.00000 418.400000
13204 7149 14638 1 149.00000 418.400000
13204 7150 16060 1 149.00000 418.400000
13204 7151 13267 1 149.00000 418.400000
13205 7152 14773 1 149.00000 418.400000
13729 7153 22533 1 149.00000 418.400000
15986 7154 22533 1 149.00000 418.400000
13206 7155 15685 1 149.00000 418.400000
13206 7156 14924 1 149.00000 418.400000
13206 7157 15389 1 149.00000 418.400000
13207 7158 14183 1 149.00000 418.400000
13207 7159 13932 1 149.00000 418.400000
13207 7160 15649 1 149.00000 418.400000
13207 7161 14964 1 149.00000 418.400000
13208 7162 13497 1 149.00000 418.400000
13208 7163 15643 1 149.00000 418.400000
13209 7164 15569 1 149.00000 418.400000
13209 7165 14167 1 149.00000 418.400000
13209 7166 14098 1 149.00000 418.400000
13210 7167 14604 1 149.00000 418.400000
14320 7168 22545 1 149.00000 418.400000
13465 7169 22545 1 149.00000 418.400000
22545 7170 24153 1 149.00000 418.400000
15134 7171 16595 1 149.00000 418.400000
13211 7172 15101 1 149.00000 418.400000
13211 7173 13490 1 149.00000 418.400000
13211 7174 15459 1 149.00000 418.400000
13212 7175 16100 1 149.00000 418.400000
13212 7176 14539 1 149.00000 418.400000
11690 7177 13212 1 149.00000 418.400000
13213 7178 13474 1 149.00000 418.400000
13213 7179 15185 1 149.00000 418.400000
16609 7180 23709 1 149.00000 418.400000
13214 7181 13321 1 149.00000 418.400000
13214 7182 13560 1 149.00000 418.400000
13215 7183 15430 1 149.00000 418.400000
13216 7184 14651 1 149.00000 418.400000
13216 7185 13754 1 149.00000 418.400000
13217 7186 13472 1 149.00000 418.400000
13217 7187 15284 1 149.00000 418.400000
13217 7188 13586 1 149.00000 418.400000
13217 7189 13386 1 149.00000 418.400000
13218 7190 15822 1 149.00000 418.400000
13218 7191 13645 1 149.00000 418.400000
13218 7192 15932 1 149.00000 418.400000
13218 7193 13242 1 149.00000 418.400000
12750 7194 22557 1 149.00000 418.400000
15433 7195 22557 1 149.00000 418.400000
13219 7196 14317 1 149.00000 418.400000
13219 7197 15889 1 149.00000 418.400000
19209 7198 22569 1 149.00000 418.400000
13220 7199 15585 1 149.00000 418.400000
13220 7200 23889 1 149.00000 418.400000
13221 7201 13502 1 149.00000 418.400000
13221 7202 14059 1 149.00000 418.400000
13222 7203 15221 1 149.00000 418.400000
13222 7204 14356 1 149.00000 418.400000
13223 7205 14706 1 149.00000 418.400000
13223 7206 14076 1 149.00000 418.400000
13224 7207 15260 1 149.00000 418.400000
13224 7208 13548 1 149.00000 418.400000
13225 7209 22749 1 149.00000 418.400000
13227 7210 15156 1 149.00000 418.400000
13227 7211 15733 1 149.00000 418.400000
13227 7212 13417 1 149.00000 418.400000
13228 7213 13625 1 149.00000 418.400000
13229 7214 13962 1 149.00000 418.400000
13229 7215 13870 1 149.00000 418.400000
13962 7216 15938 1 149.00000 418.400000
22581 7217 23109 1 149.00000 418.400000
13230 7218 23337 1 149.00000 418.400000
13230 7219 23133 1 149.00000 418.400000
13230 7220 24297 1 149.00000 418.400000
13230 7221 15335 1 149.00000 418.400000
15532 7222 22593 1 149.00000 418.400000
13257 7223 22593 1 149.00000 418.400000
13924 7224 13997 1 149.00000 418.400000
13231 7225 13997 1 149.00000 418.400000
13231 7226 16025 1 149.00000 418.400000
13232 7227 14125 1 149.00000 418.400000
13233 7228 15549 1 149.00000 418.400000
13233 7229 15911 1 149.00000 418.400000
13233 7230 14497 1 149.00000 418.400000
13233 7231 13269 1 149.00000 418.400000
13234 7232 24018 1 149.00000 418.400000
12942 7233 13234 1 149.00000 418.400000
13234 7234 14273 1 149.00000 418.400000
13235 7235 14135 1 149.00000 418.400000
13235 7236 14498 1 149.00000 418.400000
14635 7237 15613 1 149.00000 418.400000
13236 7238 14426 1 149.00000 418.400000
13236 7239 13533 1 149.00000 418.400000
15743 7240 16146 1 149.00000 418.400000
13237 7241 15743 1 149.00000 418.400000
13237 7242 16176 1 149.00000 418.400000
13238 7243 14295 1 149.00000 418.400000
13238 7244 15867 1 149.00000 418.400000
13239 7245 15946 1 149.00000 418.400000
13239 7246 14094 1 149.00000 418.400000
13240 7247 13293 1 149.00000 418.400000
13240 7248 14878 1 149.00000 418.400000
13240 7249 13316 1 149.00000 418.400000
13240 7250 24051 1 149.00000 418.400000
13241 7251 13821 1 149.00000 418.400000
13613 7252 13821 1 149.00000 418.400000
13242 7253 13310 1 149.00000 418.400000
13243 7254 13596 1 149.00000 418.400000
13244 7255 13722 1 149.00000 418.400000
13244 7256 13440 1 149.00000 418.400000
22605 7257 24447 1 149.00000 418.400000
13245 7258 16104 1 149.00000 418.400000
13245 7259 15483 1 149.00000 418.400000
13246 7260 14367 1 149.00000 418.400000
13246 7261 15054 1 149.00000 418.400000
13247 7262 14464 1 149.00000 418.400000
13247 7263 15635 1 149.00000 418.400000
13247 7264 24399 1 149.00000 418.400000
11845 7265 13248 1 149.00000 418.400000
13248 7266 13998 1 149.00000 418.400000
13249 7267 14810 1 149.00000 418.400000
13256 7268 22617 1 149.00000 418.400000
14050 7269 14900 1 149.00000 418.400000
13251 7270 14900 1 149.00000 418.400000
13252 7271 13335 1 149.00000 418.400000
13252 7272 15030 1 149.00000 418.400000
13252 7273 14282 1 149.00000 418.400000
13252 7274 15096 1 149.00000 418.400000
13253 7275 14072 1 149.00000 418.400000
13253 7276 15403 1 149.00000 418.400000
14201 7277 15696 1 149.00000 418.400000
13254 7278 23904 1 149.00000 418.400000
13254 7279 15696 1 149.00000 418.400000
13254 7280 15941 1 149.00000 418.400000
13255 7281 15091 1 149.00000 418.400000
14744 7282 15091 1 149.00000 418.400000
12853 7283 13276 1 149.00000 418.400000
13256 7284 13283 1 149.00000 418.400000
13256 7285 24198 1 149.00000 418.400000
13256 7286 17197 1 149.00000 418.400000
13257 7287 24333 1 149.00000 418.400000
23517 7288 24333 1 149.00000 418.400000
13258 7289 15373 1 149.00000 418.400000
13258 7290 14813 1 149.00000 418.400000
15373 7291 24444 1 149.00000 418.400000
13259 7292 14142 1 149.00000 418.400000
13259 7293 15204 1 149.00000 418.400000
13259 7294 15719 1 149.00000 418.400000
13260 7295 14230 1 149.00000 418.400000
13260 7296 14432 1 149.00000 418.400000
13260 7297 13859 1 149.00000 418.400000
13262 7298 13772 1 149.00000 418.400000
13262 7299 14512 1 149.00000 418.400000
13262 7300 15799 1 149.00000 418.400000
13263 7301 23889 1 149.00000 418.400000
13263 7302 17155 1 149.00000 418.400000
13264 7303 14901 1 149.00000 418.400000
13264 7304 16146 1 149.00000 418.400000
13264 7305 14716 1 149.00000 418.400000
13265 7306 14984 1 149.00000 418.400000
13265 7307 13632 1 149.00000 418.400000
12928 7308 13265 1 149.00000 418.400000
13266 7309 24342 1 149.00000 418.400000
13266 7310 13320 1 149.00000 418.400000
13266 7311 24704 1 149.00000 418.400000
13266 7312 15089 1 149.00000 418.400000
13267 7313 14863 1 149.00000 418.400000
13267 7314 14873 1 149.00000 418.400000
13268 7315 14556 1 149.00000 418.400000
13268 7316 15012 1 149.00000 418.400000
13270 7317 13658 1 149.00000 418.400000
13270 7318 15671 1 149.00000 418.400000
11543 7319 15716 1 149.00000 418.400000
11543 7320 14178 1 149.00000 418.400000
13272 7321 13629 1 149.00000 418.400000
13272 7322 16032 1 149.00000 418.400000
13273 7323 15196 1 149.00000 418.400000
13273 7324 15188 1 149.00000 418.400000
13951 7325 15196 1 149.00000 418.400000
13464 7326 15043 1 149.00000 418.400000
13275 7327 14194 1 149.00000 418.400000
13275 7328 13464 1 149.00000 418.400000
13276 7329 15283 1 149.00000 418.400000
13277 7330 14680 1 149.00000 418.400000
13278 7331 16206 1 149.00000 418.400000
13278 7332 14257 1 149.00000 418.400000
13278 7333 14156 1 149.00000 418.400000
13279 7334 14083 1 149.00000 418.400000
13279 7335 15660 1 149.00000 418.400000
13279 7336 16051 1 149.00000 418.400000
13279 7337 15087 1 149.00000 418.400000
13280 7338 15929 1 149.00000 418.400000
13280 7339 14181 1 149.00000 418.400000
13280 7340 14737 1 149.00000 418.400000
16149 7341 22701 1 149.00000 418.400000
13281 7342 22701 1 149.00000 418.400000
13281 7343 24321 1 149.00000 418.400000
13281 7344 15137 1 149.00000 418.400000
13282 7345 15595 1 149.00000 418.400000
13282 7346 14414 1 149.00000 418.400000
13282 7347 16109 1 149.00000 418.400000
13283 7348 16172 1 149.00000 418.400000
13283 7349 16122 1 149.00000 418.400000
13283 7350 15686 1 149.00000 418.400000
13284 7351 13387 1 149.00000 418.400000
13284 7352 14140 1 149.00000 418.400000
13284 7353 16152 1 149.00000 418.400000
13285 7354 14840 1 149.00000 418.400000
13285 7355 15345 1 149.00000 418.400000
13285 7356 14011 1 149.00000 418.400000
13286 7357 15801 1 149.00000 418.400000
13061 7358 14495 1 149.00000 418.400000
13061 7359 13286 1 149.00000 418.400000
13287 7360 15975 1 149.00000 418.400000
13287 7361 14507 1 149.00000 418.400000
13287 7362 15682 1 149.00000 418.400000
13288 7363 16749 1 149.00000 418.400000
13288 7364 22989 1 149.00000 418.400000
13288 7365 24099 1 149.00000 418.400000
13289 7366 15245 1 149.00000 418.400000
13290 7367 13459 1 149.00000 418.400000
11263 7368 15966 1 149.00000 418.400000
13969 7369 22641 1 149.00000 418.400000
13291 7370 13676 1 149.00000 418.400000
11494 7371 14245 1 149.00000 418.400000
13291 7372 15567 1 149.00000 418.400000
11507 7373 13069 1 149.00000 418.400000
13292 7374 14358 1 149.00000 418.400000
14038 7375 22653 1 149.00000 418.400000
22653 7376 24231 1 149.00000 418.400000
13294 7377 15154 1 149.00000 418.400000
13294 7378 16081 1 149.00000 418.400000
13294 7379 13641 1 149.00000 418.400000
13294 7380 14950 1 149.00000 418.400000
13295 7381 14053 1 149.00000 418.400000
13295 7382 16052 1 149.00000 418.400000
13296 7383 15269 1 149.00000 418.400000
13298 7384 14245 1 149.00000 418.400000
13298 7385 14941 1 149.00000 418.400000
13298 7386 13486 1 149.00000 418.400000
13298 7387 15334 1 149.00000 418.400000
13299 7388 15760 1 149.00000 418.400000
13299 7389 13615 1 149.00000 418.400000
13300 7390 15600 1 149.00000 418.400000
13300 7391 14698 1 149.00000 418.400000
13301 7392 14157 1 149.00000 418.400000
13301 7393 14228 1 149.00000 418.400000
13302 7394 13861 1 149.00000 418.400000
13302 7395 14582 1 149.00000 418.400000
13302 7396 15332 1 149.00000 418.400000
13303 7397 13760 1 149.00000 418.400000
13303 7398 13406 1 149.00000 418.400000
16665 7399 23898 1 149.00000 418.400000
16175 7400 16665 1 149.00000 418.400000
13304 7401 14489 1 149.00000 418.400000
13304 7402 13952 1 149.00000 418.400000
13304 7403 13374 1 149.00000 418.400000
13304 7404 15203 1 149.00000 418.400000
13305 7405 15783 1 149.00000 418.400000
13305 7406 13857 1 149.00000 418.400000
13305 7407 15491 1 149.00000 418.400000
13306 7408 15409 1 149.00000 418.400000
12212 7409 13314 1 149.00000 418.400000
14207 7410 15409 1 149.00000 418.400000
13307 7411 15705 1 149.00000 418.400000
13307 7412 13927 1 149.00000 418.400000
13307 7413 14554 1 149.00000 418.400000
13308 7414 13907 1 149.00000 418.400000
13309 7415 14172 1 149.00000 418.400000
13309 7416 14435 1 149.00000 418.400000
13310 7417 15697 1 149.00000 418.400000
12636 7418 13311 1 149.00000 418.400000
13311 7419 13603 1 149.00000 418.400000
13311 7420 14082 1 149.00000 418.400000
13312 7421 15271 1 149.00000 418.400000
13312 7422 13576 1 149.00000 418.400000
13313 7423 15543 1 149.00000 418.400000
13314 7424 14720 1 149.00000 418.400000
13314 7425 16166 1 149.00000 418.400000
13314 7426 13523 1 149.00000 418.400000
13315 7427 18275 1 149.00000 418.400000
13315 7428 13736 1 149.00000 418.400000
13315 7429 15160 1 149.00000 418.400000
13316 7430 15079 1 149.00000 418.400000
11939 7431 15026 1 149.00000 418.400000
13316 7432 15026 1 149.00000 418.400000
13317 7433 23757 1 149.00000 418.400000
13318 7434 15153 1 149.00000 418.400000
13318 7435 15511 1 149.00000 418.400000
13318 7436 13351 1 149.00000 418.400000
13319 7437 15241 1 149.00000 418.400000
13319 7438 14871 1 149.00000 418.400000
13319 7439 16105 1 149.00000 418.400000
13320 7440 23265 1 149.00000 418.400000
13320 7441 23373 1 149.00000 418.400000
13321 7442 15905 1 149.00000 418.400000
13322 7443 14799 1 149.00000 418.400000
13322 7444 14283 1 149.00000 418.400000
13322 7445 14250 1 149.00000 418.400000
13062 7446 14639 1 149.00000 418.400000
13324 7447 16115 1 149.00000 418.400000
13324 7448 14181 1 149.00000 418.400000
13325 7449 23481 1 149.00000 418.400000
13325 7450 13928 1 149.00000 418.400000
12457 7451 13701 1 149.00000 418.400000
13326 7452 13598 1 149.00000 418.400000
13326 7453 13468 1 149.00000 418.400000
13327 7454 16201 1 149.00000 418.400000
13327 7455 14955 1 149.00000 418.400000
13327 7456 14270 1 149.00000 418.400000
13328 7457 24276 1 149.00000 418.400000
13328 7458 15425 1 149.00000 418.400000
13329 7459 15309 1 149.00000 418.400000
13329 7460 14345 1 149.00000 418.400000
13329 7461 15416 1 149.00000 418.400000
13330 7462 14432 1 149.00000 418.400000
13330 7463 15948 1 149.00000 418.400000
13331 7464 15867 1 149.00000 418.400000
13331 7465 13710 1 149.00000 418.400000
13331 7466 14856 1 149.00000 418.400000
13332 7467 13805 1 149.00000 418.400000
13332 7468 14281 1 149.00000 418.400000
13222 7469 13333 1 149.00000 418.400000
13932 7470 16693 1 149.00000 418.400000
13334 7471 15844 1 149.00000 418.400000
15707 7472 22677 1 149.00000 418.400000
13335 7473 15701 1 149.00000 418.400000
13336 7474 14480 1 149.00000 418.400000
13336 7475 14846 1 149.00000 418.400000
13336 7476 14708 1 149.00000 418.400000
13012 7477 13336 1 149.00000 418.400000
13337 7478 14887 1 149.00000 418.400000
13338 7479 13433 1 149.00000 418.400000
13338 7480 13770 1 149.00000 418.400000
13339 7481 14104 1 149.00000 418.400000
13339 7482 15227 1 149.00000 418.400000
13339 7483 13371 1 149.00000 418.400000
13340 7484 14883 1 149.00000 418.400000
14381 7485 22689 1 149.00000 418.400000
15602 7486 22689 1 149.00000 418.400000
13341 7487 13961 1 149.00000 418.400000
13341 7488 14951 1 149.00000 418.400000
13341 7489 14509 1 149.00000 418.400000
13342 7490 23898 1 149.00000 418.400000
13342 7491 13435 1 149.00000 418.400000
13342 7492 13466 1 149.00000 418.400000
13343 7493 24201 1 149.00000 418.400000
13343 7494 15037 1 149.00000 418.400000
13344 7495 14095 1 149.00000 418.400000
13344 7496 13899 1 149.00000 418.400000
13361 7497 22713 1 149.00000 418.400000
13345 7498 14060 1 149.00000 418.400000
13345 7499 15268 1 149.00000 418.400000
13345 7500 13644 1 149.00000 418.400000
13345 7501 13845 1 149.00000 418.400000
13346 7502 14996 1 149.00000 418.400000
13346 7503 14012 1 149.00000 418.400000
13346 7504 14006 1 149.00000 418.400000
13347 7505 15489 1 149.00000 418.400000
13124 7506 13347 1 149.00000 418.400000
14243 7507 14798 1 149.00000 418.400000
13348 7508 14243 1 149.00000 418.400000
13348 7509 24039 1 149.00000 418.400000
16707 7510 23493 1 149.00000 418.400000
13349 7511 13883 1 149.00000 418.400000
11912 7512 13349 1 149.00000 418.400000
13884 7513 15609 1 149.00000 418.400000
13565 7514 13884 1 149.00000 418.400000
13350 7515 14653 1 149.00000 418.400000
13351 7516 13532 1 149.00000 418.400000
13351 7517 15604 1 149.00000 418.400000
13352 7518 14060 1 149.00000 418.400000
13352 7519 15064 1 149.00000 418.400000
13353 7520 15143 1 149.00000 418.400000
13353 7521 15101 1 149.00000 418.400000
15101 7522 15907 1 149.00000 418.400000
13354 7523 16047 1 149.00000 418.400000
13354 7524 14528 1 149.00000 418.400000
13354 7525 13769 1 149.00000 418.400000
13355 7526 15797 1 149.00000 418.400000
13355 7527 14739 1 149.00000 418.400000
12739 7528 16721 1 149.00000 418.400000
16721 7529 22977 1 149.00000 418.400000
13356 7530 14547 1 149.00000 418.400000
13356 7531 15924 1 149.00000 418.400000
13356 7532 15078 1 149.00000 418.400000
13357 7533 13604 1 149.00000 418.400000
13357 7534 14356 1 149.00000 418.400000
13358 7535 16127 1 149.00000 418.400000
13359 7536 15832 1 149.00000 418.400000
13359 7537 16059 1 149.00000 418.400000
13360 7538 15183 1 149.00000 418.400000
13361 7539 16018 1 149.00000 418.400000
13361 7540 14946 1 149.00000 418.400000
13362 7541 15648 1 149.00000 418.400000
13362 7542 15240 1 149.00000 418.400000
13362 7543 13930 1 149.00000 418.400000
13363 7544 15461 1 149.00000 418.400000
13364 7545 15617 1 149.00000 418.400000
13364 7546 24024 1 149.00000 418.400000
13366 7547 13524 1 149.00000 418.400000
13367 7548 13926 1 149.00000 418.400000
13367 7549 13603 1 149.00000 418.400000
13367 7550 14940 1 149.00000 418.400000
13368 7551 24744 1 149.00000 418.400000
13368 7552 16192 1 149.00000 418.400000
13369 7553 14571 1 149.00000 418.400000
13369 7554 16163 1 149.00000 418.400000
13370 7555 13917 1 149.00000 418.400000
13371 7556 14663 1 149.00000 418.400000
13371 7557 14490 1 149.00000 418.400000
13371 7558 13984 1 149.00000 418.400000
13627 7559 16735 1 149.00000 418.400000
13372 7560 15211 1 149.00000 418.400000
13372 7561 16088 1 149.00000 418.400000
13372 7562 14431 1 149.00000 418.400000
13372 7563 13575 1 149.00000 418.400000
13373 7564 14833 1 149.00000 418.400000
13373 7565 13482 1 149.00000 418.400000
13374 7566 15563 1 149.00000 418.400000
13375 7567 23865 1 149.00000 418.400000
15898 7568 23865 1 149.00000 418.400000
13375 7569 13741 1 149.00000 418.400000
13882 7570 14346 1 149.00000 418.400000
13376 7571 13882 1 149.00000 418.400000
13376 7572 14151 1 149.00000 418.400000
13377 7573 14290 1 149.00000 418.400000
13377 7574 14979 1 149.00000 418.400000
13377 7575 15637 1 149.00000 418.400000
13380 7576 13972 1 149.00000 418.400000
13380 7577 15164 1 149.00000 418.400000
13381 7578 14609 1 149.00000 418.400000
13382 7579 14409 1 149.00000 418.400000
13382 7580 16861 1 149.00000 418.400000
13382 7581 14922 1 149.00000 418.400000
13383 7582 14860 1 149.00000 418.400000
13384 7583 15979 1 149.00000 418.400000
13385 7584 13984 1 149.00000 418.400000
13385 7585 14805 1 149.00000 418.400000
13386 7586 15703 1 149.00000 418.400000
13386 7587 16058 1 149.00000 418.400000
13387 7588 15413 1 149.00000 418.400000
13387 7589 13834 1 149.00000 418.400000
13387 7590 13483 1 149.00000 418.400000
13388 7591 14282 1 149.00000 418.400000
13388 7592 15924 1 149.00000 418.400000
13388 7593 15183 1 149.00000 418.400000
13389 7594 14771 1 149.00000 418.400000
13389 7595 14287 1 149.00000 418.400000
13389 7596 14423 1 149.00000 418.400000
13390 7597 13599 1 149.00000 418.400000
13390 7598 24779 1 149.00000 418.400000
13391 7599 15617 1 149.00000 418.400000
13391 7600 13742 1 149.00000 418.400000
13392 7601 13396 1 149.00000 418.400000
13392 7602 15209 1 149.00000 418.400000
13867 7603 14867 1 149.00000 418.400000
13393 7604 14800 1 149.00000 418.400000
13393 7605 14867 1 149.00000 418.400000
13393 7606 14694 1 149.00000 418.400000
13394 7607 15443 1 149.00000 418.400000
13395 7608 14159 1 149.00000 418.400000
13395 7609 14864 1 149.00000 418.400000
13396 7610 15117 1 149.00000 418.400000
13397 7611 13739 1 149.00000 418.400000
13850 7612 24345 1 149.00000 418.400000
13398 7613 24345 1 149.00000 418.400000
13398 7614 21633 1 149.00000 418.400000
13399 7615 15503 1 149.00000 418.400000
13399 7616 16187 1 149.00000 418.400000
13399 7617 14687 1 149.00000 418.400000
13401 7618 13761 1 149.00000 418.400000
13401 7619 13651 1 149.00000 418.400000
13401 7620 14274 1 149.00000 418.400000
13402 7621 15931 1 149.00000 418.400000
13402 7622 14227 1 149.00000 418.400000
13402 7623 14851 1 149.00000 418.400000
22737 7624 23994 1 149.00000 418.400000
17421 7625 22737 1 149.00000 418.400000
14534 7626 22737 1 149.00000 418.400000
22749 7627 24603 1 149.00000 418.400000
14401 7628 22749 1 149.00000 418.400000
13403 7629 14710 1 149.00000 418.400000
13403 7630 15141 1 149.00000 418.400000
13403 7631 15915 1 149.00000 418.400000
13404 7632 14389 1 149.00000 418.400000
13404 7633 14810 1 149.00000 418.400000
13404 7634 15644 1 149.00000 418.400000
13404 7635 14878 1 149.00000 418.400000
15139 7636 16777 1 149.00000 418.400000
13405 7637 13771 1 149.00000 418.400000
13405 7638 24522 1 149.00000 418.400000
13405 7639 15730 1 149.00000 418.400000
13406 7640 14231 1 149.00000 418.400000
13406 7641 14175 1 149.00000 418.400000
13407 7642 15676 1 149.00000 418.400000
13407 7643 15818 1 149.00000 418.400000
14103 7644 15420 1 149.00000 418.400000
13408 7645 15420 1 149.00000 418.400000
11720 7646 13408 1 149.00000 418.400000
13409 7647 15129 1 149.00000 418.400000
13409 7648 13638 1 149.00000 418.400000
13410 7649 15702 1 149.00000 418.400000
13410 7650 13487 1 149.00000 418.400000
13411 7651 14225 1 149.00000 418.400000
13411 7652 14987 1 149.00000 418.400000
13411 7653 13968 1 149.00000 418.400000
13412 7654 16083 1 149.00000 418.400000
12689 7655 15525 1 149.00000 418.400000
13413 7656 14894 1 149.00000 418.400000
13414 7657 23781 1 149.00000 418.400000
12294 7658 14708 1 149.00000 418.400000
13415 7659 14404 1 149.00000 418.400000
13415 7660 15293 1 149.00000 418.400000
16791 7661 24078 1 149.00000 418.400000
13517 7662 16791 1 149.00000 418.400000
11676 7663 24078 1 149.00000 418.400000
13416 7664 14253 1 149.00000 418.400000
14215 7665 22761 1 149.00000 418.400000
22761 7666 23061 1 149.00000 418.400000
13418 7667 14918 1 149.00000 418.400000
13419 7668 15309 1 149.00000 418.400000
11336 7669 13888 1 149.00000 418.400000
12808 7670 15793 1 149.00000 418.400000
13420 7671 15891 1 149.00000 418.400000
14655 7672 15891 1 149.00000 418.400000
13421 7673 14694 1 149.00000 418.400000
12700 7674 13422 1 149.00000 418.400000
13423 7675 14954 1 149.00000 418.400000
13423 7676 15317 1 149.00000 418.400000
13423 7677 14837 1 149.00000 418.400000
13424 7678 14502 1 149.00000 418.400000
13424 7679 15547 1 149.00000 418.400000
13424 7680 14486 1 149.00000 418.400000
13425 7681 14929 1 149.00000 418.400000
13425 7682 14139 1 149.00000 418.400000
13426 7683 14240 1 149.00000 418.400000
13426 7684 16065 1 149.00000 418.400000
13426 7685 15483 1 149.00000 418.400000
14427 7686 16805 1 149.00000 418.400000
13713 7687 22773 1 149.00000 418.400000
15039 7688 22773 1 149.00000 418.400000
13428 7689 15094 1 149.00000 418.400000
13428 7690 15916 1 149.00000 418.400000
13429 7691 15447 1 149.00000 418.400000
13429 7692 15846 1 149.00000 418.400000
14435 7693 15176 1 149.00000 418.400000
13430 7694 13745 1 149.00000 418.400000
13430 7695 14435 1 149.00000 418.400000
13430 7696 15768 1 149.00000 418.400000
13431 7697 16144 1 149.00000 418.400000
13431 7698 14256 1 149.00000 418.400000
14069 7699 16144 1 149.00000 418.400000
13432 7700 15973 1 149.00000 418.400000
13432 7701 15362 1 149.00000 418.400000
13433 7702 15540 1 149.00000 418.400000
13433 7703 14186 1 149.00000 418.400000
13434 7704 14935 1 149.00000 418.400000
13434 7705 15448 1 149.00000 418.400000
13435 7706 13869 1 149.00000 418.400000
13435 7707 14411 1 149.00000 418.400000
13436 7708 24498 1 149.00000 418.400000
13436 7709 15269 1 149.00000 418.400000
13436 7710 14886 1 149.00000 418.400000
22785 7711 24363 1 149.00000 418.400000
14062 7712 22785 1 149.00000 418.400000
13437 7713 15145 1 149.00000 418.400000
13437 7714 22437 1 149.00000 418.400000
13438 7715 16016 1 149.00000 418.400000
13438 7716 15773 1 149.00000 418.400000
13438 7717 14341 1 149.00000 418.400000
13439 7718 16108 1 149.00000 418.400000
13439 7719 15004 1 149.00000 418.400000
13439 7720 15314 1 149.00000 418.400000
13440 7721 14411 1 149.00000 418.400000
13441 7722 13680 1 149.00000 418.400000
13441 7723 15710 1 149.00000 418.400000
13441 7724 14066 1 149.00000 418.400000
13441 7725 14809 1 149.00000 418.400000
13442 7726 14253 1 149.00000 418.400000
13442 7727 15508 1 149.00000 418.400000
13442 7728 14232 1 149.00000 418.400000
13443 7729 16066 1 149.00000 418.400000
13443 7730 14704 1 149.00000 418.400000
13444 7731 14222 1 149.00000 418.400000
17701 7732 22797 1 149.00000 418.400000
22797 7733 24432 1 149.00000 418.400000
15276 7734 22797 1 149.00000 418.400000
13445 7735 15538 1 149.00000 418.400000
13445 7736 14448 1 149.00000 418.400000
13445 7737 13762 1 149.00000 418.400000
13446 7738 14604 1 149.00000 418.400000
13138 7739 14420 1 149.00000 418.400000
11409 7740 13446 1 149.00000 418.400000
13447 7741 24414 1 149.00000 418.400000
13447 7742 23958 1 149.00000 418.400000
13447 7743 14181 1 149.00000 418.400000
13447 7744 15313 1 149.00000 418.400000
13448 7745 15610 1 149.00000 418.400000
13449 7746 14992 1 149.00000 418.400000
13449 7747 14297 1 149.00000 418.400000
13449 7748 14086 1 149.00000 418.400000
13449 7749 15152 1 149.00000 418.400000
13451 7750 15567 1 149.00000 418.400000
13451 7751 14941 1 149.00000 418.400000
13452 7752 15623 1 149.00000 418.400000
13452 7753 15300 1 149.00000 418.400000
13452 7754 15570 1 149.00000 418.400000
13453 7755 16141 1 149.00000 418.400000
13453 7756 14947 1 149.00000 418.400000
13453 7757 16111 1 149.00000 418.400000
13454 7758 15581 1 149.00000 418.400000
12319 7759 16060 1 149.00000 418.400000
13455 7760 15358 1 149.00000 418.400000
12512 7761 15788 1 149.00000 418.400000
13457 7762 22989 1 149.00000 418.400000
22821 7763 22989 1 149.00000 418.400000
13457 7764 15531 1 149.00000 418.400000
11605 7765 16175 1 149.00000 418.400000
13458 7766 14870 1 149.00000 418.400000
13458 7767 14411 1 149.00000 418.400000
13459 7768 14536 1 149.00000 418.400000
14657 7769 22809 1 149.00000 418.400000
17253 7770 22809 1 149.00000 418.400000
13460 7771 15884 1 149.00000 418.400000
13460 7772 17673 1 149.00000 418.400000
11389 7773 13460 1 149.00000 418.400000
14264 7774 15355 1 149.00000 418.400000
13461 7775 14522 1 149.00000 418.400000
13461 7776 15355 1 149.00000 418.400000
13462 7777 13532 1 149.00000 418.400000
13463 7778 16002 1 149.00000 418.400000
13463 7779 14098 1 149.00000 418.400000
13464 7780 14861 1 149.00000 418.400000
13275 7781 14658 1 149.00000 418.400000
13464 7782 16007 1 149.00000 418.400000
22173 7783 22821 1 149.00000 418.400000
14226 7784 15911 1 149.00000 418.400000
14226 7785 22821 1 149.00000 418.400000
13465 7786 14065 1 149.00000 418.400000
13465 7787 15234 1 149.00000 418.400000
13466 7788 23964 1 149.00000 418.400000
13466 7789 15694 1 149.00000 418.400000
13466 7790 16175 1 149.00000 418.400000
13467 7791 14885 1 149.00000 418.400000
13468 7792 15220 1 149.00000 418.400000
13469 7793 14880 1 149.00000 418.400000
13469 7794 16164 1 149.00000 418.400000
13469 7795 14547 1 149.00000 418.400000
13470 7796 15852 1 149.00000 418.400000
13470 7797 13886 1 149.00000 418.400000
13472 7798 15805 1 149.00000 418.400000
13472 7799 13857 1 149.00000 418.400000
13665 7800 22833 1 149.00000 418.400000
13473 7801 15072 1 149.00000 418.400000
13473 7802 15824 1 149.00000 418.400000
13474 7803 14019 1 149.00000 418.400000
13475 7804 15000 1 149.00000 418.400000
22845 7805 23145 1 149.00000 418.400000
22845 7806 24459 1 149.00000 418.400000
13476 7807 24012 1 149.00000 418.400000
13477 7808 14691 1 149.00000 418.400000
13477 7809 13693 1 149.00000 418.400000
13477 7810 14624 1 149.00000 418.400000
13477 7811 15306 1 149.00000 418.400000
13739 7812 16819 1 149.00000 418.400000
16819 7813 24714 1 149.00000 418.400000
13478 7814 15416 1 149.00000 418.400000
13478 7815 13563 1 149.00000 418.400000
13479 7816 15462 1 149.00000 418.400000
13479 7817 15051 1 149.00000 418.400000
23073 7818 24405 1 149.00000 418.400000
15524 7819 23073 1 149.00000 418.400000
12117 7820 14935 1 149.00000 418.400000
13481 7821 15258 1 149.00000 418.400000
13481 7822 14911 1 149.00000 418.400000
13482 7823 13817 1 149.00000 418.400000
13482 7824 16147 1 149.00000 418.400000
13482 7825 15545 1 149.00000 418.400000
13484 7826 15784 1 149.00000 418.400000
13484 7827 16136 1 149.00000 418.400000
13485 7828 15931 1 149.00000 418.400000
13485 7829 15788 1 149.00000 418.400000
13486 7830 16210 1 149.00000 418.400000
13486 7831 14754 1 149.00000 418.400000
15974 7832 16189 1 149.00000 418.400000
13487 7833 16189 1 149.00000 418.400000
13488 7834 24003 1 149.00000 418.400000
13488 7835 14750 1 149.00000 418.400000
13488 7836 23943 1 149.00000 418.400000
13489 7837 14237 1 149.00000 418.400000
13489 7838 14452 1 149.00000 418.400000
13490 7839 13808 1 149.00000 418.400000
13491 7840 14258 1 149.00000 418.400000
13491 7841 13590 1 149.00000 418.400000
22857 7842 23685 1 149.00000 418.400000
22869 7843 24360 1 149.00000 418.400000
13517 7844 22869 1 149.00000 418.400000
15865 7845 22869 1 149.00000 418.400000
13492 7846 14458 1 149.00000 418.400000
13492 7847 13493 1 149.00000 418.400000
13493 7848 14333 1 149.00000 418.400000
13493 7849 15198 1 149.00000 418.400000
13494 7850 14367 1 149.00000 418.400000
15286 7851 24084 1 149.00000 418.400000
13494 7852 15286 1 149.00000 418.400000
13495 7853 15647 1 149.00000 418.400000
13496 7854 14971 1 149.00000 418.400000
13496 7855 13521 1 149.00000 418.400000
13497 7856 15305 1 149.00000 418.400000
13497 7857 14095 1 149.00000 418.400000
13497 7858 15761 1 149.00000 418.400000
13618 7859 16833 1 149.00000 418.400000
13498 7860 16931 1 149.00000 418.400000
13498 7861 24363 1 149.00000 418.400000
13499 7862 23919 1 149.00000 418.400000
13499 7863 24543 1 149.00000 418.400000
13499 7864 16172 1 149.00000 418.400000
12944 7865 13500 1 149.00000 418.400000
13500 7866 14242 1 149.00000 418.400000
13500 7867 14079 1 149.00000 418.400000
13500 7868 16130 1 149.00000 418.400000
13502 7869 15790 1 149.00000 418.400000
13502 7870 13549 1 149.00000 418.400000
13503 7871 15049 1 149.00000 418.400000
13503 7872 14204 1 149.00000 418.400000
13504 7873 15195 1 149.00000 418.400000
13504 7874 15715 1 149.00000 418.400000
13505 7875 14347 1 149.00000 418.400000
13505 7876 13799 1 149.00000 418.400000
13505 7877 24432 1 149.00000 418.400000
13090 7878 13506 1 149.00000 418.400000
13506 7879 15225 1 149.00000 418.400000
13506 7880 15857 1 149.00000 418.400000
13507 7881 15589 1 149.00000 418.400000
13507 7882 15878 1 149.00000 418.400000
13508 7883 14841 1 149.00000 418.400000
13508 7884 15250 1 149.00000 418.400000
13508 7885 13597 1 149.00000 418.400000
13509 7886 15448 1 149.00000 418.400000
13509 7887 15496 1 149.00000 418.400000
13509 7888 14789 1 149.00000 418.400000
13510 7889 16032 1 149.00000 418.400000
13510 7890 15646 1 149.00000 418.400000
13510 7891 14429 1 149.00000 418.400000
13511 7892 13941 1 149.00000 418.400000
13511 7893 14868 1 149.00000 418.400000
13511 7894 13530 1 149.00000 418.400000
13512 7895 15707 1 149.00000 418.400000
13512 7896 15761 1 149.00000 418.400000
13512 7897 19497 1 149.00000 418.400000
13513 7898 14078 1 149.00000 418.400000
13513 7899 14410 1 149.00000 418.400000
13513 7900 15244 1 149.00000 418.400000
13514 7901 14207 1 149.00000 418.400000
13515 7902 15939 1 149.00000 418.400000
13515 7903 13983 1 149.00000 418.400000
13516 7904 15806 1 149.00000 418.400000
13516 7905 13869 1 149.00000 418.400000
13518 7906 14331 1 149.00000 418.400000
13518 7907 13823 1 149.00000 418.400000
22881 7908 24585 1 149.00000 418.400000
13519 7909 24749 1 149.00000 418.400000
13519 7910 13655 1 149.00000 418.400000
13520 7911 15963 1 149.00000 418.400000
13520 7912 14695 1 149.00000 418.400000
13521 7913 13731 1 149.00000 418.400000
13521 7914 14487 1 149.00000 418.400000
13521 7915 15682 1 149.00000 418.400000
13522 7916 15835 1 149.00000 418.400000
13522 7917 15633 1 149.00000 418.400000
13523 7918 14976 1 149.00000 418.400000
13523 7919 14207 1 149.00000 418.400000
13523 7920 15268 1 149.00000 418.400000
13524 7921 14575 1 149.00000 418.400000
13524 7922 13967 1 149.00000 418.400000
13525 7923 14759 1 149.00000 418.400000
13525 7924 15704 1 149.00000 418.400000
13525 7925 13580 1 149.00000 418.400000
13526 7926 15144 1 149.00000 418.400000
13527 7927 16178 1 149.00000 418.400000
13527 7928 14033 1 149.00000 418.400000
13528 7929 16003 1 149.00000 418.400000
13528 7930 14949 1 149.00000 418.400000
13528 7931 13593 1 149.00000 418.400000
15634 7932 22893 1 149.00000 418.400000
18107 7933 22893 1 149.00000 418.400000
13529 7934 15874 1 149.00000 418.400000
13529 7935 15375 1 149.00000 418.400000
13529 7936 14023 1 149.00000 418.400000
13530 7937 15437 1 149.00000 418.400000
13530 7938 13898 1 149.00000 418.400000
13530 7939 14533 1 149.00000 418.400000
13531 7940 16104 1 149.00000 418.400000
13531 7941 14449 1 149.00000 418.400000
13532 7942 14959 1 149.00000 418.400000
13533 7943 13837 1 149.00000 418.400000
13533 7944 15541 1 149.00000 418.400000
14401 7945 16847 1 149.00000 418.400000
13534 7946 14101 1 149.00000 418.400000
13534 7947 15166 1 149.00000 418.400000
13534 7948 13710 1 149.00000 418.400000
13535 7949 15559 1 149.00000 418.400000
13536 7950 14793 1 149.00000 418.400000
13537 7951 15944 1 149.00000 418.400000
13537 7952 14854 1 149.00000 418.400000
12673 7953 13537 1 149.00000 418.400000
13538 7954 16041 1 149.00000 418.400000
13539 7955 16014 1 149.00000 418.400000
22905 7956 24351 1 149.00000 418.400000
13540 7957 15942 1 149.00000 418.400000
13540 7958 13981 1 149.00000 418.400000
13540 7959 15118 1 149.00000 418.400000
13541 7960 14804 1 149.00000 418.400000
13541 7961 16053 1 149.00000 418.400000
13542 7962 16131 1 149.00000 418.400000
13543 7963 15512 1 149.00000 418.400000
13543 7964 15259 1 149.00000 418.400000
13543 7965 15729 1 149.00000 418.400000
13543 7966 15148 1 149.00000 418.400000
13544 7967 15181 1 149.00000 418.400000
13544 7968 13741 1 149.00000 418.400000
13546 7969 14814 1 149.00000 418.400000
13546 7970 14861 1 149.00000 418.400000
13546 7971 14603 1 149.00000 418.400000
16037 7972 16074 1 149.00000 418.400000
14310 7973 16037 1 149.00000 418.400000
13547 7974 16037 1 149.00000 418.400000
13548 7975 15495 1 149.00000 418.400000
13548 7976 14384 1 149.00000 418.400000
13549 7977 14196 1 149.00000 418.400000
13550 7978 24570 1 149.00000 418.400000
13550 7979 24279 1 149.00000 418.400000
13550 7980 17057 1 149.00000 418.400000
13551 7981 17785 1 149.00000 418.400000
13552 7982 15821 1 149.00000 418.400000
13552 7983 15353 1 149.00000 418.400000
13553 7984 16137 1 149.00000 418.400000
13553 7985 14436 1 149.00000 418.400000
13554 7986 14643 1 149.00000 418.400000
13554 7987 15212 1 149.00000 418.400000
13554 7988 16096 1 149.00000 418.400000
13555 7989 13991 1 149.00000 418.400000
13555 7990 24591 1 149.00000 418.400000
13555 7991 24549 1 149.00000 418.400000
13556 7992 14994 1 149.00000 418.400000
13556 7993 14079 1 149.00000 418.400000
13557 7994 15560 1 149.00000 418.400000
13558 7995 14570 1 149.00000 418.400000
13558 7996 14507 1 149.00000 418.400000
13558 7997 15395 1 149.00000 418.400000
13559 7998 15617 1 149.00000 418.400000
13559 7999 13795 1 149.00000 418.400000
13559 8000 14454 1 149.00000 418.400000
13561 8001 14235 1 149.00000 418.400000
13561 8002 14276 1 149.00000 418.400000
13561 8003 15460 1 149.00000 418.400000
13562 8004 14623 1 149.00000 418.400000
13562 8005 14852 1 149.00000 418.400000
13562 8006 15673 1 149.00000 418.400000
13562 8007 13796 1 149.00000 418.400000
13563 8008 15309 1 149.00000 418.400000
13563 8009 14314 1 149.00000 418.400000
13564 8010 13720 1 149.00000 418.400000
13564 8011 23892 1 149.00000 418.400000
15458 8012 16875 1 149.00000 418.400000
15928 8013 16875 1 149.00000 418.400000
13350 8014 13565 1 149.00000 418.400000
13566 8015 15867 1 149.00000 418.400000
13566 8016 14005 1 149.00000 418.400000
13566 8017 16150 1 149.00000 418.400000
13566 8018 14474 1 149.00000 418.400000
13567 8019 15145 1 149.00000 418.400000
13567 8020 16127 1 149.00000 418.400000
13567 8021 14130 1 149.00000 418.400000
12894 8022 13567 1 149.00000 418.400000
13568 8023 15037 1 149.00000 418.400000
13568 8024 14594 1 149.00000 418.400000
13569 8025 16052 1 149.00000 418.400000
13569 8026 15530 1 149.00000 418.400000
13569 8027 15000 1 149.00000 418.400000
13570 8028 15902 1 149.00000 418.400000
13571 8029 13694 1 149.00000 418.400000
13571 8030 16155 1 149.00000 418.400000
13571 8031 13897 1 149.00000 418.400000
13571 8032 15442 1 149.00000 418.400000
13572 8033 14066 1 149.00000 418.400000
13572 8034 14101 1 149.00000 418.400000
13572 8035 14545 1 149.00000 418.400000
13573 8036 14187 1 149.00000 418.400000
13573 8037 14806 1 149.00000 418.400000
13574 8038 15336 1 149.00000 418.400000
13574 8039 15233 1 149.00000 418.400000
13575 8040 14979 1 149.00000 418.400000
13575 8041 13824 1 149.00000 418.400000
13576 8042 13674 1 149.00000 418.400000
14717 8043 16889 1 149.00000 418.400000
14717 8044 24258 1 149.00000 418.400000
17225 8045 22917 1 149.00000 418.400000
13577 8046 16012 1 149.00000 418.400000
13578 8047 15370 1 149.00000 418.400000
13578 8048 15374 1 149.00000 418.400000
13579 8049 14823 1 149.00000 418.400000
13579 8050 15482 1 149.00000 418.400000
13580 8051 14124 1 149.00000 418.400000
13580 8052 13629 1 149.00000 418.400000
13582 8053 14981 1 149.00000 418.400000
13582 8054 24282 1 149.00000 418.400000
13583 8055 14684 1 149.00000 418.400000
13583 8056 14132 1 149.00000 418.400000
11610 8057 13583 1 149.00000 418.400000
13584 8058 23937 1 149.00000 418.400000
13584 8059 15063 1 149.00000 418.400000
13585 8060 15057 1 149.00000 418.400000
13585 8061 14343 1 149.00000 418.400000
13586 8062 14499 1 149.00000 418.400000
13587 8063 15432 1 149.00000 418.400000
13588 8064 15689 1 149.00000 418.400000
13588 8065 15787 1 149.00000 418.400000
13588 8066 14125 1 149.00000 418.400000
16903 8067 24423 1 149.00000 418.400000
13589 8068 13816 1 149.00000 418.400000
13589 8069 15149 1 149.00000 418.400000
13590 8070 14768 1 149.00000 418.400000
13590 8071 14022 1 149.00000 418.400000
13591 8072 15143 1 149.00000 418.400000
13592 8073 15993 1 149.00000 418.400000
13593 8074 14774 1 149.00000 418.400000
13594 8075 13964 1 149.00000 418.400000
13594 8076 14665 1 149.00000 418.400000
13594 8077 15315 1 149.00000 418.400000
13595 8078 13780 1 149.00000 418.400000
13595 8079 14863 1 149.00000 418.400000
13595 8080 14556 1 149.00000 418.400000
22929 8081 24621 1 149.00000 418.400000
13596 8082 15106 1 149.00000 418.400000
13596 8083 14711 1 149.00000 418.400000
13243 8084 23517 1 149.00000 418.400000
13597 8085 14943 1 149.00000 418.400000
13597 8086 14417 1 149.00000 418.400000
13598 8087 14870 1 149.00000 418.400000
13598 8088 14816 1 149.00000 418.400000
14184 8089 22941 1 149.00000 418.400000
12393 8090 22941 1 149.00000 418.400000
22953 8091 23913 1 149.00000 418.400000
14491 8092 22953 1 149.00000 418.400000
17169 8093 22953 1 149.00000 418.400000
13599 8094 13941 1 149.00000 418.400000
13599 8095 17827 1 149.00000 418.400000
13600 8096 15394 1 149.00000 418.400000
13600 8097 24784 1 149.00000 418.400000
13601 8098 15698 1 149.00000 418.400000
15289 8099 15619 1 149.00000 418.400000
13601 8100 13805 1 149.00000 418.400000
13601 8101 15619 1 149.00000 418.400000
13602 8102 14531 1 149.00000 418.400000
13602 8103 15601 1 149.00000 418.400000
13602 8104 13705 1 149.00000 418.400000
14096 8105 15406 1 149.00000 418.400000
14096 8106 22965 1 149.00000 418.400000
13605 8107 15324 1 149.00000 418.400000
13606 8108 14473 1 149.00000 418.400000
13606 8109 15584 1 149.00000 418.400000
13606 8110 16028 1 149.00000 418.400000
13607 8111 23979 1 149.00000 418.400000
13607 8112 15580 1 149.00000 418.400000
13608 8113 15072 1 149.00000 418.400000
13608 8114 13616 1 149.00000 418.400000
12014 8115 14969 1 149.00000 418.400000
13609 8116 16070 1 149.00000 418.400000
13610 8117 14821 1 149.00000 418.400000
13610 8118 15062 1 149.00000 418.400000
13611 8119 15782 1 149.00000 418.400000
13611 8120 15463 1 149.00000 418.400000
13611 8121 15713 1 149.00000 418.400000
13229 8122 13612 1 149.00000 418.400000
13613 8123 15677 1 149.00000 418.400000
13613 8124 15844 1 149.00000 418.400000
13614 8125 13818 1 149.00000 418.400000
13614 8126 15748 1 149.00000 418.400000
13615 8127 16096 1 149.00000 418.400000
13615 8128 15070 1 149.00000 418.400000
13615 8129 13995 1 149.00000 418.400000
13616 8130 15824 1 149.00000 418.400000
13616 8131 14249 1 149.00000 418.400000
13617 8132 14325 1 149.00000 418.400000
13617 8133 16009 1 149.00000 418.400000
13618 8134 14714 1 149.00000 418.400000
13618 8135 14703 1 149.00000 418.400000
13619 8136 13641 1 149.00000 418.400000
13619 8137 14386 1 149.00000 418.400000
13619 8138 15331 1 149.00000 418.400000
13620 8139 15913 1 149.00000 418.400000
13620 8140 15211 1 149.00000 418.400000
13620 8141 15047 1 149.00000 418.400000
15608 8142 22977 1 149.00000 418.400000
13621 8143 14611 1 149.00000 418.400000
13621 8144 14636 1 149.00000 418.400000
13622 8145 15801 1 149.00000 418.400000
13623 8146 14600 1 149.00000 418.400000
13623 8147 15809 1 149.00000 418.400000
14046 8148 15630 1 149.00000 418.400000
13624 8149 15630 1 149.00000 418.400000
13457 8150 15398 1 149.00000 418.400000
13625 8151 13746 1 149.00000 418.400000
13625 8152 15215 1 149.00000 418.400000
14573 8153 23001 1 149.00000 418.400000
13626 8154 14764 1 149.00000 418.400000
13626 8155 14895 1 149.00000 418.400000
14764 8156 15208 1 149.00000 418.400000
13626 8157 14077 1 149.00000 418.400000
13627 8158 14504 1 149.00000 418.400000
13627 8159 16055 1 149.00000 418.400000
13628 8160 16209 1 149.00000 418.400000
11568 8161 14300 1 149.00000 418.400000
11568 8162 13628 1 149.00000 418.400000
13629 8163 13782 1 149.00000 418.400000
13629 8164 15558 1 149.00000 418.400000
13630 8165 15074 1 149.00000 418.400000
11564 8166 15868 1 149.00000 418.400000
13631 8167 15887 1 149.00000 418.400000
13632 8168 14171 1 149.00000 418.400000
13633 8169 14597 1 149.00000 418.400000
13633 8170 15866 1 149.00000 418.400000
13633 8171 13802 1 149.00000 418.400000
14934 8172 23013 1 149.00000 418.400000
17337 8173 23013 1 149.00000 418.400000
15323 8174 23013 1 149.00000 418.400000
13634 8175 13899 1 149.00000 418.400000
13634 8176 14747 1 149.00000 418.400000
13634 8177 14663 1 149.00000 418.400000
13634 8178 14588 1 149.00000 418.400000
13635 8179 15351 1 149.00000 418.400000
13635 8180 14601 1 149.00000 418.400000
13635 8181 14365 1 149.00000 418.400000
13635 8182 14957 1 149.00000 418.400000
13636 8183 15574 1 149.00000 418.400000
13636 8184 14383 1 149.00000 418.400000
13637 8185 15493 1 149.00000 418.400000
13638 8186 13696 1 149.00000 418.400000
13638 8187 15939 1 149.00000 418.400000
13638 8188 15204 1 149.00000 418.400000
13639 8189 14770 1 149.00000 418.400000
13639 8190 14595 1 149.00000 418.400000
13639 8191 14723 1 149.00000 418.400000
13640 8192 14164 1 149.00000 418.400000
13640 8193 13752 1 149.00000 418.400000
13640 8194 14661 1 149.00000 418.400000
13641 8195 14621 1 149.00000 418.400000
13641 8196 14013 1 149.00000 418.400000
13642 8197 15073 1 149.00000 418.400000
16917 8198 23373 1 149.00000 418.400000
13643 8199 13666 1 149.00000 418.400000
13643 8200 14783 1 149.00000 418.400000
13643 8201 15854 1 149.00000 418.400000
13644 8202 14998 1 149.00000 418.400000
13645 8203 14216 1 149.00000 418.400000
13645 8204 14165 1 149.00000 418.400000
13646 8205 15903 1 149.00000 418.400000
13646 8206 16108 1 149.00000 418.400000
13646 8207 15302 1 149.00000 418.400000
13647 8208 15688 1 149.00000 418.400000
13647 8209 15616 1 149.00000 418.400000
13648 8210 16098 1 149.00000 418.400000
12201 8211 13859 1 149.00000 418.400000
18573 8212 20865 1 149.00000 418.400000
13650 8213 24282 1 149.00000 418.400000
13651 8214 15226 1 149.00000 418.400000
13651 8215 14360 1 149.00000 418.400000
14172 8216 16120 1 149.00000 418.400000
13652 8217 14172 1 149.00000 418.400000
13653 8218 15985 1 149.00000 418.400000
13653 8219 14439 1 149.00000 418.400000
13654 8220 15297 1 149.00000 418.400000
13655 8221 15462 1 149.00000 418.400000
15318 8222 16931 1 149.00000 418.400000
13656 8223 15311 1 149.00000 418.400000
13656 8224 14872 1 149.00000 418.400000
13656 8225 16191 1 149.00000 418.400000
13657 8226 15800 1 149.00000 418.400000
13657 8227 13877 1 149.00000 418.400000
13657 8228 15830 1 149.00000 418.400000
13659 8229 15032 1 149.00000 418.400000
13659 8230 16152 1 149.00000 418.400000
13659 8231 13841 1 149.00000 418.400000
13659 8232 14327 1 149.00000 418.400000
13660 8233 15582 1 149.00000 418.400000
13660 8234 18261 1 149.00000 418.400000
13661 8235 14443 1 149.00000 418.400000
13661 8236 15772 1 149.00000 418.400000
23025 8237 23445 1 149.00000 418.400000
13662 8238 16102 1 149.00000 418.400000
13662 8239 15220 1 149.00000 418.400000
14396 8240 15997 1 149.00000 418.400000
13663 8241 14660 1 149.00000 418.400000
13663 8242 15997 1 149.00000 418.400000
13664 8243 14591 1 149.00000 418.400000
13664 8244 13817 1 149.00000 418.400000
13664 8245 15175 1 149.00000 418.400000
14588 8246 23037 1 149.00000 418.400000
13665 8247 15113 1 149.00000 418.400000
13666 8248 13994 1 149.00000 418.400000
13667 8249 15067 1 149.00000 418.400000
13667 8250 15731 1 149.00000 418.400000
13667 8251 14656 1 149.00000 418.400000
13667 8252 14018 1 149.00000 418.400000
13668 8253 15484 1 149.00000 418.400000
13668 8254 14119 1 149.00000 418.400000
13668 8255 16183 1 149.00000 418.400000
13669 8256 15188 1 149.00000 418.400000
13669 8257 13774 1 149.00000 418.400000
13669 8258 14088 1 149.00000 418.400000
15278 8259 19281 1 149.00000 418.400000
13670 8260 15088 1 149.00000 418.400000
13670 8261 14871 1 149.00000 418.400000
23049 8262 24435 1 149.00000 418.400000
13671 8263 14107 1 149.00000 418.400000
13671 8264 15241 1 149.00000 418.400000
14993 8265 16973 1 149.00000 418.400000
13672 8266 15626 1 149.00000 418.400000
13672 8267 15726 1 149.00000 418.400000
13672 8268 16201 1 149.00000 418.400000
13673 8269 14686 1 149.00000 418.400000
13673 8270 15748 1 149.00000 418.400000
13673 8271 14010 1 149.00000 418.400000
13674 8272 15441 1 149.00000 418.400000
13675 8273 16212 1 149.00000 418.400000
13676 8274 15691 1 149.00000 418.400000
13677 8275 24381 1 149.00000 418.400000
15625 8276 16987 1 149.00000 418.400000
12990 8277 14211 1 149.00000 418.400000
13678 8278 14956 1 149.00000 418.400000
12990 8279 14664 1 149.00000 418.400000
13679 8280 15896 1 149.00000 418.400000
13680 8281 15794 1 149.00000 418.400000
13680 8282 14012 1 149.00000 418.400000
14012 8283 14436 1 149.00000 418.400000
13681 8284 15413 1 149.00000 418.400000
13681 8285 13970 1 149.00000 418.400000
13681 8286 14680 1 149.00000 418.400000
13681 8287 13879 1 149.00000 418.400000
14755 8288 17001 1 149.00000 418.400000
17001 8289 17323 1 149.00000 418.400000
13682 8290 24704 1 149.00000 418.400000
13682 8291 16148 1 149.00000 418.400000
13683 8292 15126 1 149.00000 418.400000
13683 8293 14110 1 149.00000 418.400000
21885 8294 24114 1 149.00000 418.400000
13684 8295 15761 1 149.00000 418.400000
13684 8296 17799 1 149.00000 418.400000
13685 8297 14278 1 149.00000 418.400000
15501 8298 23085 1 149.00000 418.400000
13686 8299 14647 1 149.00000 418.400000
13686 8300 14300 1 149.00000 418.400000
13686 8301 15113 1 149.00000 418.400000
13687 8302 14539 1 149.00000 418.400000
13687 8303 15839 1 149.00000 418.400000
13687 8304 24456 1 149.00000 418.400000
13688 8305 15287 1 149.00000 418.400000
13688 8306 14323 1 149.00000 418.400000
13689 8307 13929 1 149.00000 418.400000
13689 8308 15902 1 149.00000 418.400000
13690 8309 14966 1 149.00000 418.400000
13690 8310 16056 1 149.00000 418.400000
13690 8311 15918 1 149.00000 418.400000
13691 8312 16186 1 149.00000 418.400000
13691 8313 15038 1 149.00000 418.400000
12751 8314 15916 1 149.00000 418.400000
14524 8315 15038 1 149.00000 418.400000
13692 8316 15411 1 149.00000 418.400000
13692 8317 14881 1 149.00000 418.400000
13692 8318 13806 1 149.00000 418.400000
13692 8319 16081 1 149.00000 418.400000
13693 8320 14159 1 149.00000 418.400000
13694 8321 15765 1 149.00000 418.400000
13694 8322 14061 1 149.00000 418.400000
13695 8323 14324 1 149.00000 418.400000
13695 8324 14292 1 149.00000 418.400000
13696 8325 14761 1 149.00000 418.400000
13696 8326 15932 1 149.00000 418.400000
13697 8327 14463 1 149.00000 418.400000
13697 8328 15426 1 149.00000 418.400000
13697 8329 15076 1 149.00000 418.400000
11939 8330 13697 1 149.00000 418.400000
23097 8331 24066 1 149.00000 418.400000
16061 8332 23097 1 149.00000 418.400000
13698 8333 15812 1 149.00000 418.400000
13698 8334 13972 1 149.00000 418.400000
13698 8335 15861 1 149.00000 418.400000
13699 8336 16183 1 149.00000 418.400000
13699 8337 15210 1 149.00000 418.400000
13699 8338 13798 1 149.00000 418.400000
13699 8339 14664 1 149.00000 418.400000
13700 8340 14261 1 149.00000 418.400000
13700 8341 15117 1 149.00000 418.400000
13701 8342 14563 1 149.00000 418.400000
13702 8343 13791 1 149.00000 418.400000
13702 8344 15432 1 149.00000 418.400000
13702 8345 15460 1 149.00000 418.400000
13703 8346 15866 1 149.00000 418.400000
13703 8347 16084 1 149.00000 418.400000
13704 8348 15070 1 149.00000 418.400000
13704 8349 14802 1 149.00000 418.400000
13704 8350 15081 1 149.00000 418.400000
13706 8351 14843 1 149.00000 418.400000
13706 8352 15864 1 149.00000 418.400000
13706 8353 13784 1 149.00000 418.400000
15090 8354 23109 1 149.00000 418.400000
13707 8355 14678 1 149.00000 418.400000
13707 8356 14231 1 149.00000 418.400000
13708 8357 14217 1 149.00000 418.400000
13708 8358 15850 1 149.00000 418.400000
13709 8359 14795 1 149.00000 418.400000
13709 8360 14033 1 149.00000 418.400000
13709 8361 24576 1 149.00000 418.400000
13710 8362 23991 1 149.00000 418.400000
13711 8363 24162 1 149.00000 418.400000
13711 8364 15234 1 149.00000 418.400000
13711 8365 15962 1 149.00000 418.400000
13712 8366 14078 1 149.00000 418.400000
13712 8367 13738 1 149.00000 418.400000
23121 8368 23805 1 149.00000 418.400000
13743 8369 23121 1 149.00000 418.400000
14106 8370 23121 1 149.00000 418.400000
17015 8371 23337 1 149.00000 418.400000
13713 8372 14529 1 149.00000 418.400000
15884 8373 23025 1 149.00000 418.400000
13714 8374 15789 1 149.00000 418.400000
13714 8375 24105 1 149.00000 418.400000
15636 8376 19221 1 149.00000 418.400000
13715 8377 14189 1 149.00000 418.400000
13716 8378 15662 1 149.00000 418.400000
13717 8379 15438 1 149.00000 418.400000
13717 8380 15959 1 149.00000 418.400000
14035 8381 23133 1 149.00000 418.400000
13718 8382 16169 1 149.00000 418.400000
11527 8383 13718 1 149.00000 418.400000
13719 8384 14572 1 149.00000 418.400000
13720 8385 14001 1 149.00000 418.400000
13721 8386 13838 1 149.00000 418.400000
13721 8387 15618 1 149.00000 418.400000
13721 8388 14873 1 149.00000 418.400000
13722 8389 23793 1 149.00000 418.400000
13723 8390 14785 1 149.00000 418.400000
13723 8391 24135 1 149.00000 418.400000
13724 8392 14243 1 149.00000 418.400000
13724 8393 15177 1 149.00000 418.400000
13725 8394 16159 1 149.00000 418.400000
13725 8395 14092 1 149.00000 418.400000
13725 8396 14640 1 149.00000 418.400000
13726 8397 14050 1 149.00000 418.400000
13726 8398 15994 1 149.00000 418.400000
13727 8399 15469 1 149.00000 418.400000
13727 8400 14834 1 149.00000 418.400000
13728 8401 16031 1 149.00000 418.400000
13728 8402 15670 1 149.00000 418.400000
13730 8403 15705 1 149.00000 418.400000
14376 8404 23145 1 149.00000 418.400000
18303 8405 23145 1 149.00000 418.400000
13731 8406 16168 1 149.00000 418.400000
13731 8407 23493 1 149.00000 418.400000
13732 8408 15010 1 149.00000 418.400000
13732 8409 14826 1 149.00000 418.400000
13732 8410 14256 1 149.00000 418.400000
13733 8411 15496 1 149.00000 418.400000
18777 8412 24659 1 149.00000 418.400000
13734 8413 23601 1 149.00000 418.400000
13734 8414 13799 1 149.00000 418.400000
13735 8415 14732 1 149.00000 418.400000
13735 8416 15298 1 149.00000 418.400000
13735 8417 15527 1 149.00000 418.400000
13736 8418 14962 1 149.00000 418.400000
13736 8419 13887 1 149.00000 418.400000
13736 8420 15865 1 149.00000 418.400000
12575 8421 15023 1 149.00000 418.400000
13737 8422 14342 1 149.00000 418.400000
13738 8423 15376 1 149.00000 418.400000
13738 8424 14057 1 149.00000 418.400000
13738 8425 15018 1 149.00000 418.400000
15960 8426 23952 1 149.00000 418.400000
13739 8427 15960 1 149.00000 418.400000
14263 8428 15960 1 149.00000 418.400000
15663 8429 15922 1 149.00000 418.400000
13740 8430 14447 1 149.00000 418.400000
13740 8431 15922 1 149.00000 418.400000
13741 8432 15919 1 149.00000 418.400000
13741 8433 14853 1 149.00000 418.400000
13742 8434 15868 1 149.00000 418.400000
13742 8435 14885 1 149.00000 418.400000
15024 8436 15868 1 149.00000 418.400000
14631 8437 15254 1 149.00000 418.400000
13743 8438 17757 1 149.00000 418.400000
13743 8439 15254 1 149.00000 418.400000
13744 8440 15398 1 149.00000 418.400000
13744 8441 14219 1 149.00000 418.400000
13745 8442 14975 1 149.00000 418.400000
13746 8443 14478 1 149.00000 418.400000
13747 8444 24510 1 149.00000 418.400000
13748 8445 13780 1 149.00000 418.400000
13748 8446 15763 1 149.00000 418.400000
13748 8447 14551 1 149.00000 418.400000
13749 8448 14847 1 149.00000 418.400000
13749 8449 15410 1 149.00000 418.400000
15410 8450 15528 1 149.00000 418.400000
13750 8451 15766 1 149.00000 418.400000
13750 8452 14188 1 149.00000 418.400000
13750 8453 14996 1 149.00000 418.400000
15766 8454 15817 1 149.00000 418.400000
13751 8455 14687 1 149.00000 418.400000
11444 8456 15163 1 149.00000 418.400000
13753 8457 15325 1 149.00000 418.400000
13753 8458 14849 1 149.00000 418.400000
17043 8459 24357 1 149.00000 418.400000
13754 8460 15968 1 149.00000 418.400000
14098 8461 15968 1 149.00000 418.400000
13755 8462 14932 1 149.00000 418.400000
13755 8463 14365 1 149.00000 418.400000
13755 8464 14877 1 149.00000 418.400000
13756 8465 14388 1 149.00000 418.400000
13756 8466 15200 1 149.00000 418.400000
13757 8467 16132 1 149.00000 418.400000
13758 8468 14853 1 149.00000 418.400000
13375 8469 13758 1 149.00000 418.400000
13758 8470 15741 1 149.00000 418.400000
13758 8471 15083 1 149.00000 418.400000
13759 8472 15664 1 149.00000 418.400000
15877 8473 23157 1 149.00000 418.400000
14860 8474 23157 1 149.00000 418.400000
13761 8475 14675 1 149.00000 418.400000
13762 8476 13849 1 149.00000 418.400000
13762 8477 15561 1 149.00000 418.400000
13763 8478 14715 1 149.00000 418.400000
13763 8479 16165 1 149.00000 418.400000
13763 8480 16146 1 149.00000 418.400000
13764 8481 14227 1 149.00000 418.400000
13764 8482 15055 1 149.00000 418.400000
13765 8483 23910 1 149.00000 418.400000
13766 8484 13847 1 149.00000 418.400000
13766 8485 14571 1 149.00000 418.400000
13767 8486 15744 1 149.00000 418.400000
13767 8487 14551 1 149.00000 418.400000
13767 8488 16014 1 149.00000 418.400000
13768 8489 14594 1 149.00000 418.400000
13768 8490 15692 1 149.00000 418.400000
13768 8491 14487 1 149.00000 418.400000
15571 8492 23169 1 149.00000 418.400000
13769 8493 24168 1 149.00000 418.400000
13769 8494 24027 1 149.00000 418.400000
13770 8495 15748 1 149.00000 418.400000
13770 8496 14473 1 149.00000 418.400000
14904 8497 18289 1 149.00000 418.400000
13771 8498 24267 1 149.00000 418.400000
14097 8499 14904 1 149.00000 418.400000
13771 8500 14904 1 149.00000 418.400000
14118 8501 17057 1 149.00000 418.400000
13772 8502 14400 1 149.00000 418.400000
13772 8503 14100 1 149.00000 418.400000
13772 8504 13866 1 149.00000 418.400000
11987 8505 15123 1 149.00000 418.400000
11987 8506 13788 1 149.00000 418.400000
13774 8507 14920 1 149.00000 418.400000
13775 8508 15153 1 149.00000 418.400000
13775 8509 15604 1 149.00000 418.400000
13775 8510 15086 1 149.00000 418.400000
23193 8511 24764 1 149.00000 418.400000
15276 8512 23193 1 149.00000 418.400000
13776 8513 14824 1 149.00000 418.400000
13777 8514 15331 1 149.00000 418.400000
13777 8515 14562 1 149.00000 418.400000
13777 8516 16081 1 149.00000 418.400000
13778 8517 15996 1 149.00000 418.400000
13779 8518 16198 1 149.00000 418.400000
13780 8519 14873 1 149.00000 418.400000
23205 8520 24744 1 149.00000 418.400000
13781 8521 14352 1 149.00000 418.400000
13781 8522 15667 1 149.00000 418.400000
13782 8523 14572 1 149.00000 418.400000
13782 8524 16193 1 149.00000 418.400000
11280 8525 14138 1 149.00000 418.400000
11280 8526 14407 1 149.00000 418.400000
11280 8527 14008 1 149.00000 418.400000
13784 8528 13849 1 149.00000 418.400000
13784 8529 14420 1 149.00000 418.400000
13785 8530 14038 1 149.00000 418.400000
13785 8531 15480 1 149.00000 418.400000
13786 8532 15929 1 149.00000 418.400000
13786 8533 15097 1 149.00000 418.400000
13786 8534 16010 1 149.00000 418.400000
13787 8535 15598 1 149.00000 418.400000
13787 8536 14980 1 149.00000 418.400000
13787 8537 15895 1 149.00000 418.400000
13788 8538 15825 1 149.00000 418.400000
13788 8539 14105 1 149.00000 418.400000
13789 8540 15776 1 149.00000 418.400000
13789 8541 15230 1 149.00000 418.400000
13789 8542 16089 1 149.00000 418.400000
13790 8543 14533 1 149.00000 418.400000
13790 8544 15611 1 149.00000 418.400000
13790 8545 13898 1 149.00000 418.400000
13791 8546 14986 1 149.00000 418.400000
13792 8547 14816 1 149.00000 418.400000
13792 8548 15220 1 149.00000 418.400000
13792 8549 14009 1 149.00000 418.400000
15553 8550 17099 1 149.00000 418.400000
13793 8551 14521 1 149.00000 418.400000
13793 8552 14841 1 149.00000 418.400000
13793 8553 14417 1 149.00000 418.400000
13795 8554 16117 1 149.00000 418.400000
13795 8555 13825 1 149.00000 418.400000
13796 8556 15990 1 149.00000 418.400000
13796 8557 16077 1 149.00000 418.400000
13797 8558 14678 1 149.00000 418.400000
13797 8559 15974 1 149.00000 418.400000
13798 8560 15607 1 149.00000 418.400000
13798 8561 15719 1 149.00000 418.400000
15198 8562 17113 1 149.00000 418.400000
13799 8563 15992 1 149.00000 418.400000
13800 8564 15994 1 149.00000 418.400000
13800 8565 15011 1 149.00000 418.400000
13801 8566 15724 1 149.00000 418.400000
13802 8567 14871 1 149.00000 418.400000
13803 8568 14335 1 149.00000 418.400000
13803 8569 24393 1 149.00000 418.400000
13804 8570 14929 1 149.00000 418.400000
13804 8571 16178 1 149.00000 418.400000
13804 8572 15433 1 149.00000 418.400000
14168 8573 23217 1 149.00000 418.400000
15674 8574 23217 1 149.00000 418.400000
13806 8575 14950 1 149.00000 418.400000
13807 8576 15987 1 149.00000 418.400000
13807 8577 15474 1 149.00000 418.400000
13807 8578 16019 1 149.00000 418.400000
13807 8579 13881 1 149.00000 418.400000
13808 8580 15374 1 149.00000 418.400000
11633 8581 13808 1 149.00000 418.400000
13809 8582 14959 1 149.00000 418.400000
13810 8583 15674 1 149.00000 418.400000
13810 8584 15221 1 149.00000 418.400000
11470 8585 13810 1 149.00000 418.400000
13811 8586 14738 1 149.00000 418.400000
13811 8587 14932 1 149.00000 418.400000
13812 8588 24474 1 149.00000 418.400000
13812 8589 15206 1 149.00000 418.400000
13813 8590 15290 1 149.00000 418.400000
13813 8591 14800 1 149.00000 418.400000
13813 8592 15137 1 149.00000 418.400000
12641 8593 14333 1 149.00000 418.400000
13814 8594 13851 1 149.00000 418.400000
13814 8595 16012 1 149.00000 418.400000
13815 8596 15340 1 149.00000 418.400000
13815 8597 15415 1 149.00000 418.400000
13815 8598 15732 1 149.00000 418.400000
13816 8599 14747 1 149.00000 418.400000
13816 8600 15196 1 149.00000 418.400000
13816 8601 23769 1 149.00000 418.400000
13817 8602 14470 1 149.00000 418.400000
13817 8603 15956 1 149.00000 418.400000
13819 8604 14818 1 149.00000 418.400000
13820 8605 16000 1 149.00000 418.400000
13820 8606 15802 1 149.00000 418.400000
13820 8607 16087 1 149.00000 418.400000
13820 8608 15505 1 149.00000 418.400000
13663 8609 13821 1 149.00000 418.400000
13822 8610 15795 1 149.00000 418.400000
13822 8611 15537 1 149.00000 418.400000
11672 8612 15827 1 149.00000 418.400000
13823 8613 15788 1 149.00000 418.400000
13823 8614 15537 1 149.00000 418.400000
13824 8615 14807 1 149.00000 418.400000
13824 8616 14275 1 149.00000 418.400000
17127 8617 17967 1 149.00000 418.400000
14433 8618 17127 1 149.00000 418.400000
13825 8619 24528 1 149.00000 418.400000
13825 8620 14725 1 149.00000 418.400000
17141 8621 24255 1 149.00000 418.400000
11378 8622 14581 1 149.00000 418.400000
13826 8623 14199 1 149.00000 418.400000
13826 8624 15260 1 149.00000 418.400000
13827 8625 15568 1 149.00000 418.400000
13828 8626 14759 1 149.00000 418.400000
13828 8627 16150 1 149.00000 418.400000
13828 8628 13849 1 149.00000 418.400000
13828 8629 14843 1 149.00000 418.400000
13829 8630 15515 1 149.00000 418.400000
13830 8631 13965 1 149.00000 418.400000
13830 8632 14283 1 149.00000 418.400000
13830 8633 15301 1 149.00000 418.400000
18247 8634 23229 1 149.00000 418.400000
17393 8635 23229 1 149.00000 418.400000
15225 8636 23229 1 149.00000 418.400000
14592 8637 14665 1 149.00000 418.400000
14413 8638 14665 1 149.00000 418.400000
13831 8639 14665 1 149.00000 418.400000
13832 8640 15652 1 149.00000 418.400000
13833 8641 15146 1 149.00000 418.400000
13833 8642 13931 1 149.00000 418.400000
13834 8643 14957 1 149.00000 418.400000
13834 8644 15174 1 149.00000 418.400000
13835 8645 14696 1 149.00000 418.400000
13835 8646 14706 1 149.00000 418.400000
15759 8647 23241 1 149.00000 418.400000
15786 8648 23241 1 149.00000 418.400000
13836 8649 14805 1 149.00000 418.400000
13836 8650 15371 1 149.00000 418.400000
13837 8651 15292 1 149.00000 418.400000
13838 8652 14229 1 149.00000 418.400000
13839 8653 15549 1 149.00000 418.400000
13839 8654 14835 1 149.00000 418.400000
13840 8655 14789 1 149.00000 418.400000
13840 8656 15774 1 149.00000 418.400000
23253 8657 24018 1 149.00000 418.400000
23253 8658 23895 1 149.00000 418.400000
13841 8659 14914 1 149.00000 418.400000
13842 8660 14228 1 149.00000 418.400000
13842 8661 15453 1 149.00000 418.400000
13843 8662 14732 1 149.00000 418.400000
13843 8663 15967 1 149.00000 418.400000
12773 8664 13843 1 149.00000 418.400000
13843 8665 14312 1 149.00000 418.400000
13930 8666 15945 1 149.00000 418.400000
13930 8667 14722 1 149.00000 418.400000
13844 8668 15045 1 149.00000 418.400000
13845 8669 14991 1 149.00000 418.400000
13846 8670 16048 1 149.00000 418.400000
13846 8671 15947 1 149.00000 418.400000
16149 8672 23265 1 149.00000 418.400000
13848 8673 14674 1 149.00000 418.400000
13848 8674 13912 1 149.00000 418.400000
11273 8675 13850 1 149.00000 418.400000
13850 8676 15927 1 149.00000 418.400000
13850 8677 15122 1 149.00000 418.400000
13851 8678 14461 1 149.00000 418.400000
14865 8679 15435 1 149.00000 418.400000
13852 8680 15435 1 149.00000 418.400000
13853 8681 14820 1 149.00000 418.400000
13853 8682 14917 1 149.00000 418.400000
13853 8683 15510 1 149.00000 418.400000
13853 8684 14334 1 149.00000 418.400000
13854 8685 14727 1 149.00000 418.400000
13855 8686 14443 1 149.00000 418.400000
13855 8687 15958 1 149.00000 418.400000
13856 8688 16173 1 149.00000 418.400000
13856 8689 15354 1 149.00000 418.400000
13857 8690 15618 1 149.00000 418.400000
13858 8691 15802 1 149.00000 418.400000
13858 8692 14353 1 149.00000 418.400000
13858 8693 16000 1 149.00000 418.400000
13858 8694 15202 1 149.00000 418.400000
13859 8695 14173 1 149.00000 418.400000
13860 8696 14552 1 149.00000 418.400000
13861 8697 16080 1 149.00000 418.400000
13862 8698 15627 1 149.00000 418.400000
13862 8699 14072 1 149.00000 418.400000
13863 8700 15515 1 149.00000 418.400000
13863 8701 14168 1 149.00000 418.400000
13864 8702 14459 1 149.00000 418.400000
13864 8703 14368 1 149.00000 418.400000
13865 8704 15170 1 149.00000 418.400000
13865 8705 15135 1 149.00000 418.400000
13866 8706 15474 1 149.00000 418.400000
13868 8707 15307 1 149.00000 418.400000
13868 8708 15342 1 149.00000 418.400000
13868 8709 24396 1 149.00000 418.400000
13869 8710 15248 1 149.00000 418.400000
13869 8711 13888 1 149.00000 418.400000
13870 8712 15773 1 149.00000 418.400000
13871 8713 15399 1 149.00000 418.400000
13871 8714 14882 1 149.00000 418.400000
13872 8715 16155 1 149.00000 418.400000
13873 8716 15491 1 149.00000 418.400000
13873 8717 14777 1 149.00000 418.400000
13873 8718 15249 1 149.00000 418.400000
13874 8719 14839 1 149.00000 418.400000
13874 8720 15921 1 149.00000 418.400000
13875 8721 14095 1 149.00000 418.400000
13875 8722 14898 1 149.00000 418.400000
13876 8723 15422 1 149.00000 418.400000
13876 8724 14688 1 149.00000 418.400000
13876 8725 17701 1 149.00000 418.400000
13877 8726 14292 1 149.00000 418.400000
13877 8727 14792 1 149.00000 418.400000
13878 8728 15310 1 149.00000 418.400000
11316 8729 13878 1 149.00000 418.400000
13878 8730 15210 1 149.00000 418.400000
15836 8731 23277 1 149.00000 418.400000
15735 8732 23277 1 149.00000 418.400000
13879 8733 14536 1 149.00000 418.400000
13880 8734 15937 1 149.00000 418.400000
13103 8735 16071 1 149.00000 418.400000
13881 8736 15395 1 149.00000 418.400000
13882 8737 14070 1 149.00000 418.400000
13883 8738 16016 1 149.00000 418.400000
13883 8739 16083 1 149.00000 418.400000
13883 8740 15579 1 149.00000 418.400000
13884 8741 14808 1 149.00000 418.400000
13885 8742 15258 1 149.00000 418.400000
13885 8743 15052 1 149.00000 418.400000
13886 8744 14311 1 149.00000 418.400000
13886 8745 15737 1 149.00000 418.400000
13887 8746 15320 1 149.00000 418.400000
13889 8747 13903 1 149.00000 418.400000
13889 8748 14742 1 149.00000 418.400000
13889 8749 15106 1 149.00000 418.400000
13890 8750 15334 1 149.00000 418.400000
13891 8751 14742 1 149.00000 418.400000
13892 8752 13895 1 149.00000 418.400000
13892 8753 14080 1 149.00000 418.400000
13893 8754 14936 1 149.00000 418.400000
13893 8755 13973 1 149.00000 418.400000
13893 8756 15721 1 149.00000 418.400000
13895 8757 15499 1 149.00000 418.400000
13896 8758 14991 1 149.00000 418.400000
13896 8759 14691 1 149.00000 418.400000
23301 8760 24525 1 149.00000 418.400000
15426 8761 23301 1 149.00000 418.400000
13897 8762 15243 1 149.00000 418.400000
13898 8763 14798 1 149.00000 418.400000
13899 8764 13904 1 149.00000 418.400000
13899 8765 14104 1 149.00000 418.400000
13900 8766 14303 1 149.00000 418.400000
13900 8767 15535 1 149.00000 418.400000
13901 8768 14375 1 149.00000 418.400000
13901 8769 15457 1 149.00000 418.400000
13902 8770 14966 1 149.00000 418.400000
13902 8771 15161 1 149.00000 418.400000
13904 8772 15936 1 149.00000 418.400000
13905 8773 15749 1 149.00000 418.400000
13905 8774 14279 1 149.00000 418.400000
13906 8775 15071 1 149.00000 418.400000
13906 8776 14804 1 149.00000 418.400000
14118 8777 23313 1 149.00000 418.400000
13907 8778 14931 1 149.00000 418.400000
13907 8779 14169 1 149.00000 418.400000
13908 8780 15463 1 149.00000 418.400000
13908 8781 15210 1 149.00000 418.400000
13908 8782 14634 1 149.00000 418.400000
13909 8783 16125 1 149.00000 418.400000
13909 8784 14305 1 149.00000 418.400000
13910 8785 18023 1 149.00000 418.400000
13911 8786 14822 1 149.00000 418.400000
13911 8787 15316 1 149.00000 418.400000
13912 8788 14607 1 149.00000 418.400000
13912 8789 15218 1 149.00000 418.400000
13913 8790 14501 1 149.00000 418.400000
13913 8791 14953 1 149.00000 418.400000
13913 8792 14349 1 149.00000 418.400000
14534 8793 23325 1 149.00000 418.400000
23325 8794 24288 1 149.00000 418.400000
13914 8795 14493 1 149.00000 418.400000
13915 8796 14153 1 149.00000 418.400000
13915 8797 14221 1 149.00000 418.400000
13916 8798 14566 1 149.00000 418.400000
13916 8799 24387 1 149.00000 418.400000
13917 8800 15280 1 149.00000 418.400000
13430 8801 13917 1 149.00000 418.400000
13917 8802 14630 1 149.00000 418.400000
13918 8803 15701 1 149.00000 418.400000
13918 8804 13921 1 149.00000 418.400000
13919 8805 14465 1 149.00000 418.400000
13919 8806 14032 1 149.00000 418.400000
13919 8807 15599 1 149.00000 418.400000
13920 8808 14908 1 149.00000 418.400000
13921 8809 15839 1 149.00000 418.400000
13921 8810 14266 1 149.00000 418.400000
13921 8811 15271 1 149.00000 418.400000
13922 8812 15830 1 149.00000 418.400000
14641 8813 23337 1 149.00000 418.400000
13923 8814 14649 1 149.00000 418.400000
21021 8815 24411 1 149.00000 418.400000
13924 8816 14509 1 149.00000 418.400000
13925 8817 15843 1 149.00000 418.400000
13926 8818 15589 1 149.00000 418.400000
13926 8819 15995 1 149.00000 418.400000
13927 8820 15873 1 149.00000 418.400000
15576 8821 17183 1 149.00000 418.400000
17197 8822 24339 1 149.00000 418.400000
13928 8823 14319 1 149.00000 418.400000
13928 8824 15659 1 149.00000 418.400000
13929 8825 14909 1 149.00000 418.400000
15404 8826 15945 1 149.00000 418.400000
13933 8827 14016 1 149.00000 418.400000
13933 8828 14543 1 149.00000 418.400000
13933 8829 23157 1 149.00000 418.400000
13934 8830 15432 1 149.00000 418.400000
13935 8831 15565 1 149.00000 418.400000
13935 8832 15292 1 149.00000 418.400000
13935 8833 14685 1 149.00000 418.400000
13935 8834 14402 1 149.00000 418.400000
13936 8835 14159 1 149.00000 418.400000
13937 8836 15155 1 149.00000 418.400000
13938 8837 14590 1 149.00000 418.400000
13939 8838 14701 1 149.00000 418.400000
13939 8839 15018 1 149.00000 418.400000
13939 8840 15537 1 149.00000 418.400000
13940 8841 24794 1 149.00000 418.400000
13940 8842 14279 1 149.00000 418.400000
13941 8843 15725 1 149.00000 418.400000
13941 8844 14906 1 149.00000 418.400000
13942 8845 15907 1 149.00000 418.400000
13942 8846 15889 1 149.00000 418.400000
13943 8847 15023 1 149.00000 418.400000
12865 8848 14503 1 149.00000 418.400000
13944 8849 14989 1 149.00000 418.400000
13945 8850 16134 1 149.00000 418.400000
17225 8851 24309 1 149.00000 418.400000
13946 8852 14599 1 149.00000 418.400000
13946 8853 14822 1 149.00000 418.400000
13946 8854 15895 1 149.00000 418.400000
12699 8855 16097 1 149.00000 418.400000
13947 8856 14360 1 149.00000 418.400000
13947 8857 14176 1 149.00000 418.400000
13948 8858 15468 1 149.00000 418.400000
13948 8859 15093 1 149.00000 418.400000
13948 8860 15900 1 149.00000 418.400000
13949 8861 15796 1 149.00000 418.400000
13949 8862 14344 1 149.00000 418.400000
13949 8863 14808 1 149.00000 418.400000
15863 8864 23385 1 149.00000 418.400000
23385 8865 24719 1 149.00000 418.400000
14572 8866 17239 1 149.00000 418.400000
15954 8867 17239 1 149.00000 418.400000
13950 8868 14175 1 149.00000 418.400000
15470 8869 18849 1 149.00000 418.400000
13951 8870 15853 1 149.00000 418.400000
13951 8871 14088 1 149.00000 418.400000
13953 8872 14804 1 149.00000 418.400000
14611 8873 23397 1 149.00000 418.400000
23397 8874 24243 1 149.00000 418.400000
23397 8875 23985 1 149.00000 418.400000
14573 8876 23409 1 149.00000 418.400000
14784 8877 23421 1 149.00000 418.400000
14326 8878 23433 1 149.00000 418.400000
18317 8879 23433 1 149.00000 418.400000
13954 8880 14843 1 149.00000 418.400000
13955 8881 14775 1 149.00000 418.400000
13955 8882 15803 1 149.00000 418.400000
13956 8883 15029 1 149.00000 418.400000
13957 8884 15384 1 149.00000 418.400000
13957 8885 15256 1 149.00000 418.400000
13958 8886 14252 1 149.00000 418.400000
13958 8887 15444 1 149.00000 418.400000
13960 8888 15671 1 149.00000 418.400000
13960 8889 15653 1 149.00000 418.400000
13960 8890 14167 1 149.00000 418.400000
13961 8891 14180 1 149.00000 418.400000
13961 8892 15155 1 149.00000 418.400000
13139 8893 13962 1 149.00000 418.400000
11952 8894 15633 1 149.00000 418.400000
13963 8895 15952 1 149.00000 418.400000
13964 8896 14541 1 149.00000 418.400000
13964 8897 14552 1 149.00000 418.400000
13964 8898 14771 1 149.00000 418.400000
13965 8899 14322 1 149.00000 418.400000
13966 8900 15951 1 149.00000 418.400000
13966 8901 15425 1 149.00000 418.400000
13967 8902 15667 1 149.00000 418.400000
13967 8903 15769 1 149.00000 418.400000
13968 8904 16015 1 149.00000 418.400000
13968 8905 16159 1 149.00000 418.400000
13968 8906 14779 1 149.00000 418.400000
13969 8907 15631 1 149.00000 418.400000
14704 8908 23445 1 149.00000 418.400000
13971 8909 14617 1 149.00000 418.400000
13971 8910 14360 1 149.00000 418.400000
13972 8911 15476 1 149.00000 418.400000
13972 8912 14456 1 149.00000 418.400000
14040 8913 23457 1 149.00000 418.400000
13973 8914 14355 1 149.00000 418.400000
13973 8915 14397 1 149.00000 418.400000
12980 8916 17267 1 149.00000 418.400000
13974 8917 15165 1 149.00000 418.400000
13975 8918 14600 1 149.00000 418.400000
13975 8919 14455 1 149.00000 418.400000
13975 8920 14943 1 149.00000 418.400000
13976 8921 15733 1 149.00000 418.400000
13976 8922 15770 1 149.00000 418.400000
23469 8923 24618 1 149.00000 418.400000
13977 8924 14854 1 149.00000 418.400000
13977 8925 16120 1 149.00000 418.400000
13977 8926 14765 1 149.00000 418.400000
23493 8927 24582 1 149.00000 418.400000
17281 8928 24045 1 149.00000 418.400000
13978 8929 15944 1 149.00000 418.400000
13979 8930 16140 1 149.00000 418.400000
13979 8931 15985 1 149.00000 418.400000
13979 8932 15415 1 149.00000 418.400000
13979 8933 15662 1 149.00000 418.400000
13980 8934 15821 1 149.00000 418.400000
13980 8935 15123 1 149.00000 418.400000
13981 8936 14667 1 149.00000 418.400000
13982 8937 14663 1 149.00000 418.400000
13982 8938 18135 1 149.00000 418.400000
13573 8939 13983 1 149.00000 418.400000
13984 8940 15936 1 149.00000 418.400000
13985 8941 14024 1 149.00000 418.400000
23505 8942 24090 1 149.00000 418.400000
13986 8943 15691 1 149.00000 418.400000
13986 8944 14521 1 149.00000 418.400000
13986 8945 15892 1 149.00000 418.400000
13986 8946 16115 1 149.00000 418.400000
13987 8947 15782 1 149.00000 418.400000
13987 8948 14203 1 149.00000 418.400000
13988 8949 16103 1 149.00000 418.400000
13988 8950 14925 1 149.00000 418.400000
13988 8951 15097 1 149.00000 418.400000
13988 8952 16161 1 149.00000 418.400000
13989 8953 15101 1 149.00000 418.400000
13990 8954 24528 1 149.00000 418.400000
13990 8955 14718 1 149.00000 418.400000
13990 8956 23952 1 149.00000 418.400000
13991 8957 14277 1 149.00000 418.400000
13991 8958 16204 1 149.00000 418.400000
13991 8959 15086 1 149.00000 418.400000
13993 8960 13996 1 149.00000 418.400000
23517 8961 24384 1 149.00000 418.400000
14968 8962 17295 1 149.00000 418.400000
13994 8963 16195 1 149.00000 418.400000
13995 8964 15091 1 149.00000 418.400000
13995 8965 16125 1 149.00000 418.400000
13995 8966 15920 1 149.00000 418.400000
13996 8967 15473 1 149.00000 418.400000
13997 8968 15298 1 149.00000 418.400000
13997 8969 15262 1 149.00000 418.400000
11965 8970 15796 1 149.00000 418.400000
13999 8971 16190 1 149.00000 418.400000
13999 8972 15035 1 149.00000 418.400000
13999 8973 14341 1 149.00000 418.400000
14424 8974 17309 1 149.00000 418.400000
15840 8975 23529 1 149.00000 418.400000
11895 8976 14196 1 149.00000 418.400000
14000 8977 15572 1 149.00000 418.400000
14000 8978 14650 1 149.00000 418.400000
14001 8979 15986 1 149.00000 418.400000
14001 8980 14578 1 149.00000 418.400000
14001 8981 14972 1 149.00000 418.400000
14002 8982 15315 1 149.00000 418.400000
14002 8983 14698 1 149.00000 418.400000
14003 8984 15947 1 149.00000 418.400000
14003 8985 24087 1 149.00000 418.400000
11532 8986 14881 1 149.00000 418.400000
14005 8987 16193 1 149.00000 418.400000
14005 8988 15704 1 149.00000 418.400000
14005 8989 14188 1 149.00000 418.400000
15741 8990 23541 1 149.00000 418.400000
14007 8991 15224 1 149.00000 418.400000
14007 8992 15746 1 149.00000 418.400000
14008 8993 15583 1 149.00000 418.400000
14008 8994 16040 1 149.00000 418.400000
14009 8995 14870 1 149.00000 418.400000
14011 8996 16078 1 149.00000 418.400000
14011 8997 14366 1 149.00000 418.400000
13680 8998 15378 1 149.00000 418.400000
14013 8999 14748 1 149.00000 418.400000
14013 9000 14338 1 149.00000 418.400000
16098 9001 19533 1 149.00000 418.400000
14014 9002 15904 1 149.00000 418.400000
14014 9003 15267 1 149.00000 418.400000
14014 9004 15406 1 149.00000 418.400000
15197 9005 23553 1 149.00000 418.400000
14015 9006 14339 1 149.00000 418.400000
14015 9007 16160 1 149.00000 418.400000
14015 9008 15984 1 149.00000 418.400000
14016 9009 15877 1 149.00000 418.400000
11676 9010 23565 1 149.00000 418.400000
23577 9011 24114 1 149.00000 418.400000
14147 9012 23577 1 149.00000 418.400000
14017 9013 15543 1 149.00000 418.400000
14017 9014 15076 1 149.00000 418.400000
14018 9015 14315 1 149.00000 418.400000
14315 9016 14879 1 149.00000 418.400000
14018 9017 16005 1 149.00000 418.400000
14019 9018 15368 1 149.00000 418.400000
14020 9019 14077 1 149.00000 418.400000
11844 9020 14021 1 149.00000 418.400000
14021 9021 24468 1 149.00000 418.400000
14022 9022 14927 1 149.00000 418.400000
14022 9023 15592 1 149.00000 418.400000
14776 9024 23589 1 149.00000 418.400000
23589 9025 24453 1 149.00000 418.400000
14023 9026 15588 1 149.00000 418.400000
14023 9027 15300 1 149.00000 418.400000
14023 9028 15140 1 149.00000 418.400000
14024 9029 14625 1 149.00000 418.400000
14024 9030 14397 1 149.00000 418.400000
14025 9031 15055 1 149.00000 418.400000
14025 9032 17659 1 149.00000 418.400000
13254 9033 14025 1 149.00000 418.400000
14026 9034 14345 1 149.00000 418.400000
14802 9035 17323 1 149.00000 418.400000
14028 9036 15723 1 149.00000 418.400000
14028 9037 14412 1 149.00000 418.400000
14029 9038 15245 1 149.00000 418.400000
14029 9039 14709 1 149.00000 418.400000
14030 9040 15020 1 149.00000 418.400000
14858 9041 15487 1 149.00000 418.400000
14030 9042 15487 1 149.00000 418.400000
14030 9043 15155 1 149.00000 418.400000
14031 9044 14451 1 149.00000 418.400000
14032 9045 15352 1 149.00000 418.400000
14033 9046 14736 1 149.00000 418.400000
14033 9047 15482 1 149.00000 418.400000
18261 9048 23601 1 149.00000 418.400000
14034 9049 14902 1 149.00000 418.400000
14034 9050 15797 1 149.00000 418.400000
14035 9051 14560 1 149.00000 418.400000
14035 9052 16128 1 149.00000 418.400000
14036 9053 14923 1 149.00000 418.400000
23613 9054 23805 1 149.00000 418.400000
15730 9055 23613 1 149.00000 418.400000
12383 9056 14038 1 149.00000 418.400000
14039 9057 14280 1 149.00000 418.400000
14039 9058 15909 1 149.00000 418.400000
14039 9059 14414 1 149.00000 418.400000
14040 9060 14061 1 149.00000 418.400000
13176 9061 14707 1 149.00000 418.400000
12236 9062 14041 1 149.00000 418.400000
14041 9063 14145 1 149.00000 418.400000
14041 9064 15826 1 149.00000 418.400000
14042 9065 14473 1 149.00000 418.400000
14043 9066 15555 1 149.00000 418.400000
14675 9067 23625 1 149.00000 418.400000
14044 9068 14952 1 149.00000 418.400000
14518 9069 14952 1 149.00000 418.400000
14045 9070 16114 1 149.00000 418.400000
14045 9071 14671 1 149.00000 418.400000
14046 9072 15067 1 149.00000 418.400000
12444 9073 14888 1 149.00000 418.400000
14047 9074 15506 1 149.00000 418.400000
14047 9075 14579 1 149.00000 418.400000
14048 9076 15022 1 149.00000 418.400000
14048 9077 15127 1 149.00000 418.400000
14048 9078 16167 1 149.00000 418.400000
14048 9079 15784 1 149.00000 418.400000
14049 9080 16211 1 149.00000 418.400000
14049 9081 14056 1 149.00000 418.400000
14549 9082 15449 1 149.00000 418.400000
14049 9083 15449 1 149.00000 418.400000
14050 9084 14091 1 149.00000 418.400000
12919 9085 14175 1 149.00000 418.400000
14052 9086 14819 1 149.00000 418.400000
14053 9087 15279 1 149.00000 418.400000
16066 9088 23637 1 149.00000 418.400000
14967 9089 23637 1 149.00000 418.400000
17449 9090 23637 1 149.00000 418.400000
14054 9091 23985 1 149.00000 418.400000
14054 9092 24057 1 149.00000 418.400000
14054 9093 14055 1 149.00000 418.400000
14055 9094 14251 1 149.00000 418.400000
14055 9095 16212 1 149.00000 418.400000
14056 9096 15895 1 149.00000 418.400000
14056 9097 14673 1 149.00000 418.400000
11783 9098 17337 1 149.00000 418.400000
14057 9099 15798 1 149.00000 418.400000
14057 9100 15964 1 149.00000 418.400000
14058 9101 15718 1 149.00000 418.400000
14058 9102 14259 1 149.00000 418.400000
15490 9103 23649 1 149.00000 418.400000
23649 9104 24378 1 149.00000 418.400000
14059 9105 14840 1 149.00000 418.400000
14059 9106 15832 1 149.00000 418.400000
14059 9107 14068 1 149.00000 418.400000
14060 9108 15708 1 149.00000 418.400000
14061 9109 15577 1 149.00000 418.400000
14062 9110 14089 1 149.00000 418.400000
15703 9111 22785 1 149.00000 418.400000
14062 9112 15284 1 149.00000 418.400000
14063 9113 15549 1 149.00000 418.400000
14064 9114 14748 1 149.00000 418.400000
14064 9115 14621 1 149.00000 418.400000
14064 9116 15048 1 149.00000 418.400000
14065 9117 15831 1 149.00000 418.400000
14065 9118 14988 1 149.00000 418.400000
14532 9119 14988 1 149.00000 418.400000
14065 9120 15679 1 149.00000 418.400000
14066 9121 15565 1 149.00000 418.400000
14066 9122 15500 1 149.00000 418.400000
14067 9123 16047 1 149.00000 418.400000
14067 9124 15039 1 149.00000 418.400000
14067 9125 15823 1 149.00000 418.400000
15461 9126 15823 1 149.00000 418.400000
14068 9127 16114 1 149.00000 418.400000
12579 9128 14068 1 149.00000 418.400000
14070 9129 14479 1 149.00000 418.400000
13185 9130 14071 1 149.00000 418.400000
14071 9131 14389 1 149.00000 418.400000
14071 9132 14916 1 149.00000 418.400000
14071 9133 16162 1 149.00000 418.400000
12039 9134 15705 1 149.00000 418.400000
14074 9135 15917 1 149.00000 418.400000
14074 9136 15044 1 149.00000 418.400000
14075 9137 14360 1 149.00000 418.400000
14075 9138 14181 1 149.00000 418.400000
15828 9139 23661 1 149.00000 418.400000
14369 9140 23661 1 149.00000 418.400000
14076 9141 15809 1 149.00000 418.400000
14077 9142 14546 1 149.00000 418.400000
23673 9143 24072 1 149.00000 418.400000
14320 9144 23673 1 149.00000 418.400000
14078 9145 14847 1 149.00000 418.400000
15312 9146 15964 1 149.00000 418.400000
14563 9147 15312 1 149.00000 418.400000
14080 9148 15312 1 149.00000 418.400000
14081 9149 16063 1 149.00000 418.400000
14081 9150 15380 1 149.00000 418.400000
14081 9151 14195 1 149.00000 418.400000
14082 9152 14637 1 149.00000 418.400000
14082 9153 15299 1 149.00000 418.400000
14082 9154 15343 1 149.00000 418.400000
14083 9155 15717 1 149.00000 418.400000
14084 9156 15321 1 149.00000 418.400000
14084 9157 15601 1 149.00000 418.400000
14085 9158 15364 1 149.00000 418.400000
12639 9159 14425 1 149.00000 418.400000
14086 9160 15613 1 149.00000 418.400000
14086 9161 15439 1 149.00000 418.400000
14086 9162 15151 1 149.00000 418.400000
14087 9163 14405 1 149.00000 418.400000
14087 9164 24719 1 149.00000 418.400000
14087 9165 16208 1 149.00000 418.400000
14088 9166 16107 1 149.00000 418.400000
14088 9167 14949 1 149.00000 418.400000
15377 9168 23697 1 149.00000 418.400000
14090 9169 15032 1 149.00000 418.400000
14092 9170 14897 1 149.00000 418.400000
14092 9171 16000 1 149.00000 418.400000
12339 9172 24639 1 149.00000 418.400000
14093 9173 15244 1 149.00000 418.400000
11741 9174 16094 1 149.00000 418.400000
14887 9175 15244 1 149.00000 418.400000
14094 9176 14734 1 149.00000 418.400000
14094 9177 15706 1 149.00000 418.400000
14095 9178 14508 1 149.00000 418.400000
14096 9179 15013 1 149.00000 418.400000
14926 9180 22965 1 149.00000 418.400000
14096 9181 15904 1 149.00000 418.400000
14097 9182 15640 1 149.00000 418.400000
14099 9183 24231 1 149.00000 418.400000
14099 9184 14322 1 149.00000 418.400000
14100 9185 15673 1 149.00000 418.400000
14102 9186 16027 1 149.00000 418.400000
14103 9187 14266 1 149.00000 418.400000
14104 9188 14898 1 149.00000 418.400000
18205 9189 23721 1 149.00000 418.400000
14788 9190 23721 1 149.00000 418.400000
23721 9191 24438 1 149.00000 418.400000
14105 9192 14534 1 149.00000 418.400000
17351 9193 24180 1 149.00000 418.400000
17365 9194 20697 1 149.00000 418.400000
14106 9195 16132 1 149.00000 418.400000
14107 9196 15633 1 149.00000 418.400000
14107 9197 15256 1 149.00000 418.400000
14108 9198 15110 1 149.00000 418.400000
14108 9199 15620 1 149.00000 418.400000
14108 9200 15621 1 149.00000 418.400000
14109 9201 14825 1 149.00000 418.400000
14109 9202 24501 1 149.00000 418.400000
14110 9203 15603 1 149.00000 418.400000
14110 9204 14948 1 149.00000 418.400000
14111 9205 16039 1 149.00000 418.400000
14111 9206 14389 1 149.00000 418.400000
14113 9207 16043 1 149.00000 418.400000
14113 9208 15721 1 149.00000 418.400000
14113 9209 14937 1 149.00000 418.400000
14114 9210 24261 1 149.00000 418.400000
14114 9211 16141 1 149.00000 418.400000
14114 9212 15150 1 149.00000 418.400000
14115 9213 14158 1 149.00000 418.400000
14116 9214 14760 1 149.00000 418.400000
14117 9215 15319 1 149.00000 418.400000
14203 9216 15488 1 149.00000 418.400000
14514 9217 15846 1 149.00000 418.400000
14118 9218 14514 1 149.00000 418.400000
14119 9219 14130 1 149.00000 418.400000
14120 9220 14803 1 149.00000 418.400000
14120 9221 15653 1 149.00000 418.400000
14121 9222 14940 1 149.00000 418.400000
14122 9223 14385 1 149.00000 418.400000
14122 9224 14468 1 149.00000 418.400000
14123 9225 14898 1 149.00000 418.400000
14124 9226 15034 1 149.00000 418.400000
14124 9227 14254 1 149.00000 418.400000
12170 9228 14125 1 149.00000 418.400000
14126 9229 14662 1 149.00000 418.400000
14126 9230 23865 1 149.00000 418.400000
14126 9231 15919 1 149.00000 418.400000
14129 9232 15445 1 149.00000 418.400000
14129 9233 15444 1 149.00000 418.400000
14131 9234 15083 1 149.00000 418.400000
14131 9235 14366 1 149.00000 418.400000
14132 9236 15454 1 149.00000 418.400000
14132 9237 14455 1 149.00000 418.400000
14133 9238 15941 1 149.00000 418.400000
14133 9239 14548 1 149.00000 418.400000
14134 9240 14872 1 149.00000 418.400000
14134 9241 14439 1 149.00000 418.400000
14134 9242 15769 1 149.00000 418.400000
14135 9243 15979 1 149.00000 418.400000
14135 9244 14185 1 149.00000 418.400000
14136 9245 15206 1 149.00000 418.400000
14136 9246 14430 1 149.00000 418.400000
14136 9247 24420 1 149.00000 418.400000
14137 9248 15330 1 149.00000 418.400000
14137 9249 14144 1 149.00000 418.400000
14137 9250 14251 1 149.00000 418.400000
14138 9251 14432 1 149.00000 418.400000
14138 9252 15170 1 149.00000 418.400000
14139 9253 16173 1 149.00000 418.400000
15886 9254 23745 1 149.00000 418.400000
14140 9255 14654 1 149.00000 418.400000
14140 9256 14285 1 149.00000 418.400000
14141 9257 15656 1 149.00000 418.400000
14141 9258 15365 1 149.00000 418.400000
14142 9259 15493 1 149.00000 418.400000
14142 9260 14416 1 149.00000 418.400000
14143 9261 14480 1 149.00000 418.400000
14143 9262 14846 1 149.00000 418.400000
15566 9263 17407 1 149.00000 418.400000
14650 9264 17407 1 149.00000 418.400000
14144 9265 15542 1 149.00000 418.400000
14146 9266 15379 1 149.00000 418.400000
14146 9267 14680 1 149.00000 418.400000
14146 9268 15874 1 149.00000 418.400000
23757 9269 24075 1 149.00000 418.400000
14147 9270 23910 1 149.00000 418.400000
14730 9271 23910 1 149.00000 418.400000
14148 9272 15374 1 149.00000 418.400000
14148 9273 14670 1 149.00000 418.400000
14148 9274 16043 1 149.00000 418.400000
14149 9275 15146 1 149.00000 418.400000
23769 9276 24354 1 149.00000 418.400000
14150 9277 15366 1 149.00000 418.400000
14151 9278 16180 1 149.00000 418.400000
14152 9279 15662 1 149.00000 418.400000
14152 9280 14165 1 149.00000 418.400000
14152 9281 16140 1 149.00000 418.400000
14153 9282 14259 1 149.00000 418.400000
11979 9283 15360 1 149.00000 418.400000
23781 9284 24036 1 149.00000 418.400000
14155 9285 15831 1 149.00000 418.400000
15458 9286 23793 1 149.00000 418.400000
14156 9287 14793 1 149.00000 418.400000
14156 9288 14369 1 149.00000 418.400000
14157 9289 14797 1 149.00000 418.400000
14157 9290 15338 1 149.00000 418.400000
14157 9291 15883 1 149.00000 418.400000
14158 9292 14890 1 149.00000 418.400000
14158 9293 16138 1 149.00000 418.400000
14160 9294 15660 1 149.00000 418.400000
14161 9295 15770 1 149.00000 418.400000
14161 9296 15461 1 149.00000 418.400000
14162 9297 16104 1 149.00000 418.400000
14162 9298 14409 1 149.00000 418.400000
14162 9299 14394 1 149.00000 418.400000
14163 9300 15504 1 149.00000 418.400000
14163 9301 15239 1 149.00000 418.400000
14164 9302 15560 1 149.00000 418.400000
14164 9303 15059 1 149.00000 418.400000
12087 9304 14165 1 149.00000 418.400000
14166 9305 15136 1 149.00000 418.400000
14166 9306 15348 1 149.00000 418.400000
14166 9307 14532 1 149.00000 418.400000
14167 9308 15064 1 149.00000 418.400000
14169 9309 15973 1 149.00000 418.400000
14170 9310 14431 1 149.00000 418.400000
14170 9311 15245 1 149.00000 418.400000
14171 9312 15015 1 149.00000 418.400000
14171 9313 15896 1 149.00000 418.400000
14171 9314 14669 1 149.00000 418.400000
14173 9315 15213 1 149.00000 418.400000
14173 9316 14884 1 149.00000 418.400000
14174 9317 15844 1 149.00000 418.400000
14177 9318 14334 1 149.00000 418.400000
14177 9319 16110 1 149.00000 418.400000
14177 9320 14564 1 149.00000 418.400000
14178 9321 14574 1 149.00000 418.400000
14178 9322 16143 1 149.00000 418.400000
14179 9323 15242 1 149.00000 418.400000
14180 9324 15228 1 149.00000 418.400000
14180 9325 15020 1 149.00000 418.400000
14182 9326 15321 1 149.00000 418.400000
14182 9327 15364 1 149.00000 418.400000
14183 9328 15297 1 149.00000 418.400000
11843 9329 12586 1 149.00000 418.400000
14184 9330 15024 1 149.00000 418.400000
14185 9331 14691 1 149.00000 418.400000
14185 9332 15825 1 149.00000 418.400000
14185 9333 15534 1 149.00000 418.400000
14186 9334 15061 1 149.00000 418.400000
13181 9335 14186 1 149.00000 418.400000
14187 9336 14814 1 149.00000 418.400000
14188 9337 15378 1 149.00000 418.400000
14188 9338 14856 1 149.00000 418.400000
14189 9339 16064 1 149.00000 418.400000
14190 9340 15231 1 149.00000 418.400000
14190 9341 15550 1 149.00000 418.400000
14191 9342 15864 1 149.00000 418.400000
14191 9343 14682 1 149.00000 418.400000
14192 9344 24306 1 149.00000 418.400000
14192 9345 15636 1 149.00000 418.400000
14193 9346 14960 1 149.00000 418.400000
14194 9347 14689 1 149.00000 418.400000
18289 9348 23805 1 149.00000 418.400000
14195 9349 15504 1 149.00000 418.400000
14196 9350 14502 1 149.00000 418.400000
14197 9351 14419 1 149.00000 418.400000
12277 9352 14197 1 149.00000 418.400000
15791 9353 23817 1 149.00000 418.400000
14198 9354 15958 1 149.00000 418.400000
14199 9355 14659 1 149.00000 418.400000
14199 9356 15356 1 149.00000 418.400000
14200 9357 14586 1 149.00000 418.400000
14201 9358 15521 1 149.00000 418.400000
14542 9359 15508 1 149.00000 418.400000
14201 9360 14542 1 149.00000 418.400000
14202 9361 15345 1 149.00000 418.400000
14117 9362 15488 1 149.00000 418.400000
14204 9363 15610 1 149.00000 418.400000
14204 9364 14268 1 149.00000 418.400000
14205 9365 15389 1 149.00000 418.400000
14205 9366 14749 1 149.00000 418.400000
14205 9367 15724 1 149.00000 418.400000
14206 9368 16025 1 149.00000 418.400000
14206 9369 15543 1 149.00000 418.400000
14207 9370 14460 1 149.00000 418.400000
14208 9371 14645 1 149.00000 418.400000
14208 9372 15654 1 149.00000 418.400000
14209 9373 15737 1 149.00000 418.400000
14210 9374 14651 1 149.00000 418.400000
15807 9375 17477 1 149.00000 418.400000
14211 9376 15855 1 149.00000 418.400000
14211 9377 15210 1 149.00000 418.400000
14212 9378 15193 1 149.00000 418.400000
14212 9379 14446 1 149.00000 418.400000
14213 9380 14921 1 149.00000 418.400000
14213 9381 16062 1 149.00000 418.400000
14214 9382 15852 1 149.00000 418.400000
14214 9383 14275 1 149.00000 418.400000
13855 9384 14215 1 149.00000 418.400000
14216 9385 16140 1 149.00000 418.400000
14216 9386 14476 1 149.00000 418.400000
14216 9387 15985 1 149.00000 418.400000
15747 9388 23841 1 149.00000 418.400000
14217 9389 15266 1 149.00000 418.400000
14217 9390 14301 1 149.00000 418.400000
14218 9391 15343 1 149.00000 418.400000
14219 9392 14484 1 149.00000 418.400000
14220 9393 14504 1 149.00000 418.400000
14220 9394 18573 1 149.00000 418.400000
14220 9395 24507 1 149.00000 418.400000
14221 9396 15841 1 149.00000 418.400000
14223 9397 15415 1 149.00000 418.400000
14223 9398 14640 1 149.00000 418.400000
14223 9399 15899 1 149.00000 418.400000
14224 9400 14301 1 149.00000 418.400000
14225 9401 14385 1 149.00000 418.400000
14226 9402 24739 1 149.00000 418.400000
14226 9403 23934 1 149.00000 418.400000
14227 9404 14942 1 149.00000 418.400000
17491 9405 24009 1 149.00000 418.400000
14230 9406 14986 1 149.00000 418.400000
14231 9407 15393 1 149.00000 418.400000
14231 9408 15874 1 149.00000 418.400000
14232 9409 15627 1 149.00000 418.400000
14233 9410 15308 1 149.00000 418.400000
14233 9411 15875 1 149.00000 418.400000
14234 9412 14259 1 149.00000 418.400000
14234 9413 15171 1 149.00000 418.400000
14235 9414 15180 1 149.00000 418.400000
14236 9415 14611 1 149.00000 418.400000
14236 9416 15330 1 149.00000 418.400000
14236 9417 14928 1 149.00000 418.400000
14236 9418 16212 1 149.00000 418.400000
14237 9419 14533 1 149.00000 418.400000
14238 9420 15897 1 149.00000 418.400000
12764 9421 14238 1 149.00000 418.400000
14238 9422 14966 1 149.00000 418.400000
14239 9423 14567 1 149.00000 418.400000
14239 9424 24045 1 149.00000 418.400000
14239 9425 15476 1 149.00000 418.400000
14240 9426 14305 1 149.00000 418.400000
14241 9427 14876 1 149.00000 418.400000
14242 9428 14460 1 149.00000 418.400000
14242 9429 16184 1 149.00000 418.400000
14626 9430 17505 1 149.00000 418.400000
14243 9431 15611 1 149.00000 418.400000
14244 9432 14321 1 149.00000 418.400000
14244 9433 14924 1 149.00000 418.400000
14245 9434 16171 1 149.00000 418.400000
14246 9435 15656 1 149.00000 418.400000
14246 9436 16144 1 149.00000 418.400000
14247 9437 14412 1 149.00000 418.400000
14249 9438 14752 1 149.00000 418.400000
14249 9439 16199 1 149.00000 418.400000
14250 9440 14949 1 149.00000 418.400000
14251 9441 24243 1 149.00000 418.400000
14252 9442 15103 1 149.00000 418.400000
14252 9443 15793 1 149.00000 418.400000
14253 9444 15728 1 149.00000 418.400000
14254 9445 14589 1 149.00000 418.400000
14254 9446 15170 1 149.00000 418.400000
14254 9447 14585 1 149.00000 418.400000
14255 9448 15450 1 149.00000 418.400000
14255 9449 14650 1 149.00000 418.400000
14255 9450 15790 1 149.00000 418.400000
14256 9451 16075 1 149.00000 418.400000
13732 9452 14280 1 149.00000 418.400000
14257 9453 15205 1 149.00000 418.400000
14257 9454 14365 1 149.00000 418.400000
14258 9455 14932 1 149.00000 418.400000
16092 9456 17995 1 149.00000 418.400000
14259 9457 14834 1 149.00000 418.400000
14260 9458 23922 1 149.00000 418.400000
14261 9459 15252 1 149.00000 418.400000
14261 9460 24063 1 149.00000 418.400000
14262 9461 15908 1 149.00000 418.400000
14262 9462 15702 1 149.00000 418.400000
14262 9463 14773 1 149.00000 418.400000
14657 9464 17519 1 149.00000 418.400000
12642 9465 14514 1 149.00000 418.400000
14263 9466 14718 1 149.00000 418.400000
14264 9467 15422 1 149.00000 418.400000
14264 9468 14593 1 149.00000 418.400000
12395 9469 14265 1 149.00000 418.400000
14265 9470 15757 1 149.00000 418.400000
14265 9471 24378 1 149.00000 418.400000
14267 9472 15415 1 149.00000 418.400000
14268 9473 14380 1 149.00000 418.400000
14268 9474 15918 1 149.00000 418.400000
14269 9475 16197 1 149.00000 418.400000
14269 9476 14832 1 149.00000 418.400000
14269 9477 14777 1 149.00000 418.400000
14270 9478 15726 1 149.00000 418.400000
14271 9479 23892 1 149.00000 418.400000
14271 9480 15606 1 149.00000 418.400000
14272 9481 14594 1 149.00000 418.400000
14273 9482 15166 1 149.00000 418.400000
14274 9483 15132 1 149.00000 418.400000
14275 9484 16138 1 149.00000 418.400000
14214 9485 14527 1 149.00000 418.400000
12219 9486 14974 1 149.00000 418.400000
14276 9487 14324 1 149.00000 418.400000
14277 9488 16054 1 149.00000 418.400000
14277 9489 14893 1 149.00000 418.400000
14278 9490 14713 1 149.00000 418.400000
14278 9491 14526 1 149.00000 418.400000
23853 9492 24075 1 149.00000 418.400000
14279 9493 15359 1 149.00000 418.400000
14280 9494 14403 1 149.00000 418.400000
14281 9495 15062 1 149.00000 418.400000
14282 9496 14658 1 149.00000 418.400000
14283 9497 15296 1 149.00000 418.400000
14283 9498 14774 1 149.00000 418.400000
14284 9499 15255 1 149.00000 418.400000
15666 9500 17547 1 149.00000 418.400000
14285 9501 14301 1 149.00000 418.400000
14285 9502 14738 1 149.00000 418.400000
14287 9503 16079 1 149.00000 418.400000
14288 9504 24270 1 149.00000 418.400000
15898 9505 24369 1 149.00000 418.400000
23877 9506 24369 1 149.00000 418.400000
14289 9507 15341 1 149.00000 418.400000
13292 9508 14289 1 149.00000 418.400000
14290 9509 14859 1 149.00000 418.400000
12367 9510 15373 1 149.00000 418.400000
14291 9511 14351 1 149.00000 418.400000
14291 9512 15266 1 149.00000 418.400000
14293 9513 14325 1 149.00000 418.400000
14293 9514 14807 1 149.00000 418.400000
14293 9515 14723 1 149.00000 418.400000
14293 9516 16138 1 149.00000 418.400000
11922 9517 15359 1 149.00000 418.400000
14295 9518 15500 1 149.00000 418.400000
14296 9519 14440 1 149.00000 418.400000
14862 9520 23889 1 149.00000 418.400000
14297 9521 14378 1 149.00000 418.400000
14298 9522 16209 1 149.00000 418.400000
14299 9523 16067 1 149.00000 418.400000
14299 9524 16010 1 149.00000 418.400000
14300 9525 15505 1 149.00000 418.400000
14990 9526 23892 1 149.00000 418.400000
14302 9527 15291 1 149.00000 418.400000
14302 9528 15511 1 149.00000 418.400000
14303 9529 14374 1 149.00000 418.400000
14303 9530 14446 1 149.00000 418.400000
14303 9531 15327 1 149.00000 418.400000
14960 9532 15440 1 149.00000 418.400000
14304 9533 14960 1 149.00000 418.400000
14304 9534 16162 1 149.00000 418.400000
14305 9535 14757 1 149.00000 418.400000
14306 9536 15700 1 149.00000 418.400000
14306 9537 15184 1 149.00000 418.400000
14307 9538 14479 1 149.00000 418.400000
14307 9539 16046 1 149.00000 418.400000
14308 9540 14431 1 149.00000 418.400000
14309 9541 24531 1 149.00000 418.400000
14309 9542 17771 1 149.00000 418.400000
14309 9543 15674 1 149.00000 418.400000
14309 9544 14700 1 149.00000 418.400000
14310 9545 14987 1 149.00000 418.400000
14311 9546 16042 1 149.00000 418.400000
14731 9547 17561 1 149.00000 418.400000
14427 9548 17561 1 149.00000 418.400000
16861 9549 24318 1 149.00000 418.400000
14313 9550 15003 1 149.00000 418.400000
14313 9551 15069 1 149.00000 418.400000
14314 9552 15775 1 149.00000 418.400000
14314 9553 15699 1 149.00000 418.400000
14314 9554 14819 1 149.00000 418.400000
14315 9555 15304 1 149.00000 418.400000
14316 9556 23928 1 149.00000 418.400000
14316 9557 23946 1 149.00000 418.400000
21861 9558 24162 1 149.00000 418.400000
14317 9559 14766 1 149.00000 418.400000
14317 9560 15396 1 149.00000 418.400000
14318 9561 24450 1 149.00000 418.400000
14318 9562 24144 1 149.00000 418.400000
14662 9563 17589 1 149.00000 418.400000
14319 9564 14673 1 149.00000 418.400000
14320 9565 16018 1 149.00000 418.400000
14320 9566 15842 1 149.00000 418.400000
14244 9567 15178 1 149.00000 418.400000
13682 9568 17603 1 149.00000 418.400000
14322 9569 15242 1 149.00000 418.400000
14322 9570 14794 1 149.00000 418.400000
14323 9571 14757 1 149.00000 418.400000
14325 9572 14891 1 149.00000 418.400000
14326 9573 15598 1 149.00000 418.400000
14327 9574 24234 1 149.00000 418.400000
14327 9575 24177 1 149.00000 418.400000
14328 9576 24546 1 149.00000 418.400000
14328 9577 16115 1 149.00000 418.400000
14329 9578 24558 1 149.00000 418.400000
14330 9579 14813 1 149.00000 418.400000
14331 9580 16160 1 149.00000 418.400000
14332 9581 24264 1 149.00000 418.400000
14332 9582 15477 1 149.00000 418.400000
14332 9583 24684 1 149.00000 418.400000
14335 9584 15949 1 149.00000 418.400000
14335 9585 15466 1 149.00000 418.400000
14336 9586 15989 1 149.00000 418.400000
14337 9587 15730 1 149.00000 418.400000
14338 9588 15912 1 149.00000 418.400000
14338 9589 15911 1 149.00000 418.400000
14338 9590 15154 1 149.00000 418.400000
14340 9591 14649 1 149.00000 418.400000
14340 9592 14700 1 149.00000 418.400000
14341 9593 15477 1 149.00000 418.400000
14341 9594 15348 1 149.00000 418.400000
14342 9595 15620 1 149.00000 418.400000
14342 9596 14415 1 149.00000 418.400000
14945 9597 15620 1 149.00000 418.400000
14343 9598 14437 1 149.00000 418.400000
14343 9599 15732 1 149.00000 418.400000
14344 9600 15481 1 149.00000 418.400000
14568 9601 23895 1 149.00000 418.400000
23895 9602 24165 1 149.00000 418.400000
14345 9603 24054 1 149.00000 418.400000
14346 9604 15684 1 149.00000 418.400000
14346 9605 14479 1 149.00000 418.400000
15458 9606 23898 1 149.00000 418.400000
14347 9607 15275 1 149.00000 418.400000
14347 9608 15533 1 149.00000 418.400000
14348 9609 15783 1 149.00000 418.400000
15783 9610 15805 1 149.00000 418.400000
15690 9611 15783 1 149.00000 418.400000
14349 9612 15862 1 149.00000 418.400000
14349 9613 15300 1 149.00000 418.400000
14350 9614 15008 1 149.00000 418.400000
14350 9615 15326 1 149.00000 418.400000
14352 9616 15311 1 149.00000 418.400000
14352 9617 16076 1 149.00000 418.400000
14353 9618 15484 1 149.00000 418.400000
14354 9619 15028 1 149.00000 418.400000
14355 9620 16108 1 149.00000 418.400000
14731 9621 21201 1 149.00000 418.400000
17631 9622 18037 1 149.00000 418.400000
14359 9623 15836 1 149.00000 418.400000
14359 9624 15819 1 149.00000 418.400000
14359 9625 15641 1 149.00000 418.400000
14361 9626 15866 1 149.00000 418.400000
14361 9627 15088 1 149.00000 418.400000
14361 9628 15118 1 149.00000 418.400000
14361 9629 14441 1 149.00000 418.400000
14362 9630 15782 1 149.00000 418.400000
14362 9631 14653 1 149.00000 418.400000
14363 9632 15365 1 149.00000 418.400000
15195 9633 15365 1 149.00000 418.400000
14363 9634 16144 1 149.00000 418.400000
14364 9635 14725 1 149.00000 418.400000
14364 9636 14796 1 149.00000 418.400000
14365 9637 15353 1 149.00000 418.400000
14366 9638 16061 1 149.00000 418.400000
14366 9639 16145 1 149.00000 418.400000
14367 9640 14894 1 149.00000 418.400000
14368 9641 14652 1 149.00000 418.400000
14369 9642 24177 1 149.00000 418.400000
14369 9643 17883 1 149.00000 418.400000
15965 9644 17645 1 149.00000 418.400000
17645 9645 24471 1 149.00000 418.400000
14370 9646 15664 1 149.00000 418.400000
14370 9647 15509 1 149.00000 418.400000
17911 9648 23904 1 149.00000 418.400000
14372 9649 15425 1 149.00000 418.400000
14372 9650 15666 1 149.00000 418.400000
14372 9651 15849 1 149.00000 418.400000
14373 9652 24291 1 149.00000 418.400000
14970 9653 23907 1 149.00000 418.400000
15557 9654 23913 1 149.00000 418.400000
15229 9655 15410 1 149.00000 418.400000
14376 9656 15410 1 149.00000 418.400000
14377 9657 15016 1 149.00000 418.400000
14378 9658 15255 1 149.00000 418.400000
14378 9659 14953 1 149.00000 418.400000
14378 9660 15857 1 149.00000 418.400000
14379 9661 15520 1 149.00000 418.400000
14379 9662 14776 1 149.00000 418.400000
14379 9663 23949 1 149.00000 418.400000
14380 9664 15709 1 149.00000 418.400000
14381 9665 23958 1 149.00000 418.400000
14381 9666 14737 1 149.00000 418.400000
14382 9667 15632 1 149.00000 418.400000
14382 9668 24489 1 149.00000 418.400000
14382 9669 14525 1 149.00000 418.400000
14382 9670 15323 1 149.00000 418.400000
14383 9671 14569 1 149.00000 418.400000
17295 9672 23916 1 149.00000 418.400000
16017 9673 23919 1 149.00000 418.400000
14384 9674 14657 1 149.00000 418.400000
14385 9675 15651 1 149.00000 418.400000
14386 9676 14516 1 149.00000 418.400000
14387 9677 15145 1 149.00000 418.400000
14387 9678 24120 1 149.00000 418.400000
14387 9679 24216 1 149.00000 418.400000
14388 9680 16048 1 149.00000 418.400000
14388 9681 14752 1 149.00000 418.400000
14388 9682 14880 1 149.00000 418.400000
16106 9683 23922 1 149.00000 418.400000
14389 9684 14756 1 149.00000 418.400000
14390 9685 15396 1 149.00000 418.400000
14390 9686 15158 1 149.00000 418.400000
15403 9687 16139 1 149.00000 418.400000
14391 9688 16139 1 149.00000 418.400000
14392 9689 15843 1 149.00000 418.400000
23925 9690 24372 1 149.00000 418.400000
23928 9691 24483 1 149.00000 418.400000
14393 9692 15795 1 149.00000 418.400000
14394 9693 16125 1 149.00000 418.400000
14395 9694 14597 1 149.00000 418.400000
14395 9695 15161 1 149.00000 418.400000
14396 9696 16104 1 149.00000 418.400000
14396 9697 15306 1 149.00000 418.400000
14397 9698 14776 1 149.00000 418.400000
14398 9699 15247 1 149.00000 418.400000
14398 9700 15849 1 149.00000 418.400000
14398 9701 24480 1 149.00000 418.400000
14399 9702 14416 1 149.00000 418.400000
14399 9703 15054 1 149.00000 418.400000
14399 9704 15607 1 149.00000 418.400000
14400 9705 15642 1 149.00000 418.400000
14400 9706 15529 1 149.00000 418.400000
14553 9707 15642 1 149.00000 418.400000
14401 9708 15547 1 149.00000 418.400000
11544 9709 14402 1 149.00000 418.400000
14403 9710 15361 1 149.00000 418.400000
14403 9711 15308 1 149.00000 418.400000
14404 9712 14775 1 149.00000 418.400000
14404 9713 14933 1 149.00000 418.400000
14405 9714 15576 1 149.00000 418.400000
14405 9715 15329 1 149.00000 418.400000
14406 9716 16184 1 149.00000 418.400000
14406 9717 14635 1 149.00000 418.400000
14407 9718 14412 1 149.00000 418.400000
14408 9719 15446 1 149.00000 418.400000
14408 9720 14930 1 149.00000 418.400000
14408 9721 14582 1 149.00000 418.400000
14410 9722 14887 1 149.00000 418.400000
14410 9723 15582 1 149.00000 418.400000
14411 9724 15458 1 149.00000 418.400000
14412 9725 14649 1 149.00000 418.400000
14413 9726 15656 1 149.00000 418.400000
11689 9727 23937 1 149.00000 418.400000
14414 9728 15361 1 149.00000 418.400000
14998 9729 15270 1 149.00000 418.400000
14415 9730 15270 1 149.00000 418.400000
14417 9731 15333 1 149.00000 418.400000
14418 9732 24246 1 149.00000 418.400000
14418 9733 15693 1 149.00000 418.400000
14418 9734 24351 1 149.00000 418.400000
14418 9735 16034 1 149.00000 418.400000
14419 9736 14681 1 149.00000 418.400000
14419 9737 15109 1 149.00000 418.400000
14419 9738 15155 1 149.00000 418.400000
14420 9739 15273 1 149.00000 418.400000
12739 9740 24390 1 149.00000 418.400000
14422 9741 15208 1 149.00000 418.400000
14423 9742 15033 1 149.00000 418.400000
14423 9743 24396 1 149.00000 418.400000
14424 9744 24420 1 149.00000 418.400000
14424 9745 15780 1 149.00000 418.400000
14425 9746 15254 1 149.00000 418.400000
14425 9747 15419 1 149.00000 418.400000
14426 9748 16119 1 149.00000 418.400000
14427 9749 16126 1 149.00000 418.400000
14427 9750 14529 1 149.00000 418.400000
14428 9751 24216 1 149.00000 418.400000
14428 9752 15285 1 149.00000 418.400000
14428 9753 15058 1 149.00000 418.400000
14429 9754 14786 1 149.00000 418.400000
14430 9755 14444 1 149.00000 418.400000
14430 9756 24474 1 149.00000 418.400000
14434 9757 14831 1 149.00000 418.400000
14434 9758 14703 1 149.00000 418.400000
14545 9759 15126 1 149.00000 418.400000
14436 9760 14545 1 149.00000 418.400000
14437 9761 14456 1 149.00000 418.400000
14438 9762 16013 1 149.00000 418.400000
14438 9763 14989 1 149.00000 418.400000
14462 9764 17687 1 149.00000 418.400000
17687 9765 18079 1 149.00000 418.400000
14439 9766 24255 1 149.00000 418.400000
14440 9767 14882 1 149.00000 418.400000
14440 9768 24171 1 149.00000 418.400000
14441 9769 14511 1 149.00000 418.400000
14441 9770 15206 1 149.00000 418.400000
14442 9771 16157 1 149.00000 418.400000
14442 9772 15479 1 149.00000 418.400000
14443 9773 15144 1 149.00000 418.400000
14444 9774 15580 1 149.00000 418.400000
14445 9775 15468 1 149.00000 418.400000
14446 9776 16110 1 149.00000 418.400000
14212 9777 14917 1 149.00000 418.400000
14447 9778 15625 1 149.00000 418.400000
14447 9779 15180 1 149.00000 418.400000
14448 9780 15859 1 149.00000 418.400000
14449 9781 15687 1 149.00000 418.400000
14449 9782 15997 1 149.00000 418.400000
14450 9783 16003 1 149.00000 418.400000
14450 9784 14584 1 149.00000 418.400000
14450 9785 15230 1 149.00000 418.400000
14451 9786 15653 1 149.00000 418.400000
14452 9787 14510 1 149.00000 418.400000
12981 9788 14452 1 149.00000 418.400000
14453 9789 15472 1 149.00000 418.400000
14454 9790 15868 1 149.00000 418.400000
14454 9791 15122 1 149.00000 418.400000
14454 9792 24024 1 149.00000 418.400000
14456 9793 16205 1 149.00000 418.400000
14457 9794 15677 1 149.00000 418.400000
14457 9795 15360 1 149.00000 418.400000
14458 9796 14778 1 149.00000 418.400000
14458 9797 18501 1 149.00000 418.400000
14459 9798 14978 1 149.00000 418.400000
14459 9799 15209 1 149.00000 418.400000
14461 9800 14727 1 149.00000 418.400000
14461 9801 15191 1 149.00000 418.400000
14462 9802 14828 1 149.00000 418.400000
14462 9803 24156 1 149.00000 418.400000
14463 9804 24303 1 149.00000 418.400000
14465 9805 14601 1 149.00000 418.400000
16182 9806 23958 1 149.00000 418.400000
14466 9807 24600 1 149.00000 418.400000
15928 9808 23961 1 149.00000 418.400000
14467 9809 14544 1 149.00000 418.400000
14467 9810 15147 1 149.00000 418.400000
14468 9811 14506 1 149.00000 418.400000
14468 9812 16121 1 149.00000 418.400000
14469 9813 14475 1 149.00000 418.400000
14469 9814 16042 1 149.00000 418.400000
14469 9815 15369 1 149.00000 418.400000
14470 9816 14591 1 149.00000 418.400000
13271 9817 14471 1 149.00000 418.400000
14471 9818 15824 1 149.00000 418.400000
14472 9819 15472 1 149.00000 418.400000
14472 9820 15624 1 149.00000 418.400000
14474 9821 14843 1 149.00000 418.400000
14612 9822 23964 1 149.00000 418.400000
23964 9823 24045 1 149.00000 418.400000
14755 9824 23967 1 149.00000 418.400000
15881 9825 17715 1 149.00000 418.400000
14475 9826 15848 1 149.00000 418.400000
14476 9827 24408 1 149.00000 418.400000
14476 9828 24165 1 149.00000 418.400000
14477 9829 15513 1 149.00000 418.400000
14477 9830 14829 1 149.00000 418.400000
14478 9831 15913 1 149.00000 418.400000
14478 9832 15540 1 149.00000 418.400000
14478 9833 16028 1 149.00000 418.400000
14479 9834 15328 1 149.00000 418.400000
14480 9835 24537 1 149.00000 418.400000
14481 9836 14640 1 149.00000 418.400000
13547 9837 14481 1 149.00000 418.400000
14481 9838 14987 1 149.00000 418.400000
12762 9839 14483 1 149.00000 418.400000
14483 9840 15075 1 149.00000 418.400000
14484 9841 14835 1 149.00000 418.400000
14484 9842 14562 1 149.00000 418.400000
14486 9843 14650 1 149.00000 418.400000
14486 9844 24603 1 149.00000 418.400000
14488 9845 16010 1 149.00000 418.400000
11458 9846 14488 1 149.00000 418.400000
11291 9847 14488 1 149.00000 418.400000
14489 9848 14769 1 149.00000 418.400000
14490 9849 15245 1 149.00000 418.400000
14490 9850 16088 1 149.00000 418.400000
14491 9851 15528 1 149.00000 418.400000
23976 9852 24624 1 149.00000 418.400000
16112 9853 23976 1 149.00000 418.400000
14492 9854 16171 1 149.00000 418.400000
14494 9855 15598 1 149.00000 418.400000
14494 9856 14599 1 149.00000 418.400000
14495 9857 15880 1 149.00000 418.400000
14496 9858 14543 1 149.00000 418.400000
14496 9859 24674 1 149.00000 418.400000
14497 9860 15331 1 149.00000 418.400000
14497 9861 15154 1 149.00000 418.400000
14498 9862 15821 1 149.00000 418.400000
14498 9863 15825 1 149.00000 418.400000
14499 9864 14661 1 149.00000 418.400000
14500 9865 14718 1 149.00000 418.400000
14500 9866 15386 1 149.00000 418.400000
14501 9867 15140 1 149.00000 418.400000
14501 9868 16066 1 149.00000 418.400000
14501 9869 15255 1 149.00000 418.400000
14502 9870 14687 1 149.00000 418.400000
14503 9871 15621 1 149.00000 418.400000
14503 9872 15785 1 149.00000 418.400000
14504 9873 15068 1 149.00000 418.400000
14504 9874 14659 1 149.00000 418.400000
14505 9875 16069 1 149.00000 418.400000
14505 9876 15414 1 149.00000 418.400000
14506 9877 24774 1 149.00000 418.400000
14506 9878 15167 1 149.00000 418.400000
14507 9879 15192 1 149.00000 418.400000
14508 9880 16095 1 149.00000 418.400000
14508 9881 15207 1 149.00000 418.400000
14509 9882 15235 1 149.00000 418.400000
14509 9883 15142 1 149.00000 418.400000
14510 9884 14656 1 149.00000 418.400000
14513 9885 16172 1 149.00000 418.400000
14516 9886 16169 1 149.00000 418.400000
12799 9887 15050 1 149.00000 418.400000
14518 9888 15752 1 149.00000 418.400000
12799 9889 14518 1 149.00000 418.400000
14519 9890 15843 1 149.00000 418.400000
14519 9891 15983 1 149.00000 418.400000
12608 9892 14519 1 149.00000 418.400000
14520 9893 14768 1 149.00000 418.400000
14520 9894 15621 1 149.00000 418.400000
14521 9895 15929 1 149.00000 418.400000
14522 9896 14893 1 149.00000 418.400000
14523 9897 16170 1 149.00000 418.400000
14523 9898 14998 1 149.00000 418.400000
14524 9899 24629 1 149.00000 418.400000
14526 9900 15082 1 149.00000 418.400000
14526 9901 15521 1 149.00000 418.400000
14526 9902 14548 1 149.00000 418.400000
23988 9903 24561 1 149.00000 418.400000
23988 9904 24102 1 149.00000 418.400000
15442 9905 23988 1 149.00000 418.400000
14527 9906 14930 1 149.00000 418.400000
14527 9907 15814 1 149.00000 418.400000
14528 9908 14983 1 149.00000 418.400000
14528 9909 15095 1 149.00000 418.400000
14529 9910 14815 1 149.00000 418.400000
14530 9911 15449 1 149.00000 418.400000
14531 9912 15991 1 149.00000 418.400000
14532 9913 15668 1 149.00000 418.400000
14535 9914 15349 1 149.00000 418.400000
14535 9915 14721 1 149.00000 418.400000
14536 9916 14710 1 149.00000 418.400000
14537 9917 15846 1 149.00000 418.400000
14537 9918 14749 1 149.00000 418.400000
14538 9919 15053 1 149.00000 418.400000
14538 9920 15632 1 149.00000 418.400000
14539 9921 15634 1 149.00000 418.400000
13926 9922 14540 1 149.00000 418.400000
12636 9923 16173 1 149.00000 418.400000
14541 9924 16079 1 149.00000 418.400000
14541 9925 14765 1 149.00000 418.400000
14542 9926 15167 1 149.00000 418.400000
14543 9927 24366 1 149.00000 418.400000
14544 9928 15764 1 149.00000 418.400000
14546 9929 15141 1 149.00000 418.400000
15687 9930 23994 1 149.00000 418.400000
14547 9931 15870 1 149.00000 418.400000
14547 9932 15183 1 149.00000 418.400000
15751 9933 23997 1 149.00000 418.400000
14548 9934 14851 1 149.00000 418.400000
14549 9935 14599 1 149.00000 418.400000
14550 9936 15295 1 149.00000 418.400000
14550 9937 15200 1 149.00000 418.400000
13268 9938 14551 1 149.00000 418.400000
12176 9939 14552 1 149.00000 418.400000
13860 9940 14854 1 149.00000 418.400000
14553 9941 15799 1 149.00000 418.400000
14553 9942 14637 1 149.00000 418.400000
14555 9943 14846 1 149.00000 418.400000
14556 9944 15304 1 149.00000 418.400000
14557 9945 15637 1 149.00000 418.400000
14557 9946 14979 1 149.00000 418.400000
14558 9947 15505 1 149.00000 418.400000
14558 9948 15002 1 149.00000 418.400000
15291 9949 24000 1 149.00000 418.400000
24000 9950 24402 1 149.00000 418.400000
14559 9951 15392 1 149.00000 418.400000
14559 9952 15302 1 149.00000 418.400000
14559 9953 15290 1 149.00000 418.400000
14559 9954 15384 1 149.00000 418.400000
11430 9955 15146 1 149.00000 418.400000
14562 9956 14643 1 149.00000 418.400000
14563 9957 15485 1 149.00000 418.400000
14564 9958 15453 1 149.00000 418.400000
14565 9959 15879 1 149.00000 418.400000
14565 9960 15964 1 149.00000 418.400000
14566 9961 15350 1 149.00000 418.400000
14567 9962 15861 1 149.00000 418.400000
14567 9963 14612 1 149.00000 418.400000
14568 9964 15257 1 149.00000 418.400000
24003 9965 24006 1 149.00000 418.400000
15934 9966 24003 1 149.00000 418.400000
14569 9967 14782 1 149.00000 418.400000
14570 9968 14857 1 149.00000 418.400000
14348 9969 14570 1 149.00000 418.400000
14571 9970 15085 1 149.00000 418.400000
14573 9971 24615 1 149.00000 418.400000
14573 9972 14855 1 149.00000 418.400000
14574 9973 15339 1 149.00000 418.400000
13494 9974 14575 1 149.00000 418.400000
14575 9975 14894 1 149.00000 418.400000
14576 9976 15555 1 149.00000 418.400000
14577 9977 15414 1 149.00000 418.400000
15953 9978 18981 1 149.00000 418.400000
13420 9979 14579 1 149.00000 418.400000
14579 9980 14741 1 149.00000 418.400000
13015 9981 14679 1 149.00000 418.400000
14581 9982 15869 1 149.00000 418.400000
14582 9983 15015 1 149.00000 418.400000
14583 9984 15341 1 149.00000 418.400000
14583 9985 15532 1 149.00000 418.400000
14584 9986 16147 1 149.00000 418.400000
14586 9987 15289 1 149.00000 418.400000
14587 9988 15028 1 149.00000 418.400000
14587 9989 15495 1 149.00000 418.400000
17785 9990 24333 1 149.00000 418.400000
14588 9991 18135 1 149.00000 418.400000
14588 9992 24354 1 149.00000 418.400000
24009 9993 24294 1 149.00000 418.400000
15121 9994 15455 1 149.00000 418.400000
15455 9995 24009 1 149.00000 418.400000
14589 9996 15646 1 149.00000 418.400000
14592 9997 15217 1 149.00000 418.400000
14592 9998 15562 1 149.00000 418.400000
12555 9999 14593 1 149.00000 418.400000
14593 10000 14676 1 149.00000 418.400000
14593 10001 15492 1 149.00000 418.400000
14595 10002 15157 1 149.00000 418.400000
14595 10003 15264 1 149.00000 418.400000
14595 10004 24558 1 149.00000 418.400000
14596 10005 15848 1 149.00000 418.400000
14596 10006 15007 1 149.00000 418.400000
14597 10007 16084 1 149.00000 418.400000
14598 10008 15104 1 149.00000 418.400000
14599 10009 15056 1 149.00000 418.400000
14600 10010 14684 1 149.00000 418.400000
14600 10011 16103 1 149.00000 418.400000
24012 10012 24069 1 149.00000 418.400000
14602 10013 15556 1 149.00000 418.400000
14602 10014 15138 1 149.00000 418.400000
14603 10015 14905 1 149.00000 418.400000
14604 10016 15654 1 149.00000 418.400000
14604 10017 15854 1 149.00000 418.400000
14605 10018 15637 1 149.00000 418.400000
14605 10019 15165 1 149.00000 418.400000
14605 10020 15587 1 149.00000 418.400000
14696 10021 24015 1 149.00000 418.400000
12938 10022 14606 1 149.00000 418.400000
14606 10023 15953 1 149.00000 418.400000
12938 10024 16102 1 149.00000 418.400000
14607 10025 15510 1 149.00000 418.400000
14608 10026 15873 1 149.00000 418.400000
14609 10027 14895 1 149.00000 418.400000
13733 10028 14609 1 149.00000 418.400000
14611 10029 15168 1 149.00000 418.400000
14613 10030 24492 1 149.00000 418.400000
14614 10031 14815 1 149.00000 418.400000
15039 10032 22401 1 149.00000 418.400000
14615 10033 18093 1 149.00000 418.400000
24021 10034 24147 1 149.00000 418.400000
15136 10035 24021 1 149.00000 418.400000
24021 10036 24615 1 149.00000 418.400000
14618 10037 16188 1 149.00000 418.400000
12309 10038 14618 1 149.00000 418.400000
14619 10039 16052 1 149.00000 418.400000
14620 10040 14799 1 149.00000 418.400000
14621 10041 15811 1 149.00000 418.400000
14622 10042 15507 1 149.00000 418.400000
14622 10043 15954 1 149.00000 418.400000
14624 10044 15997 1 149.00000 418.400000
14624 10045 15534 1 149.00000 418.400000
14625 10046 24465 1 149.00000 418.400000
14625 10047 24504 1 149.00000 418.400000
14626 10048 24099 1 149.00000 418.400000
14627 10049 24417 1 149.00000 418.400000
14627 10050 15250 1 149.00000 418.400000
15024 10051 24024 1 149.00000 418.400000
12846 10052 16121 1 149.00000 418.400000
24027 10053 24789 1 149.00000 418.400000
14629 10054 14790 1 149.00000 418.400000
12830 10055 14731 1 149.00000 418.400000
14631 10056 16132 1 149.00000 418.400000
14632 10057 15871 1 149.00000 418.400000
14632 10058 15545 1 149.00000 418.400000
14634 10059 16194 1 149.00000 418.400000
14634 10060 15431 1 149.00000 418.400000
14634 10061 15719 1 149.00000 418.400000
15151 10062 16038 1 149.00000 418.400000
13621 10063 24649 1 149.00000 418.400000
14636 10064 15735 1 149.00000 418.400000
14638 10065 15987 1 149.00000 418.400000
14638 10066 15395 1 149.00000 418.400000
14639 10067 15638 1 149.00000 418.400000
15084 10068 24030 1 149.00000 418.400000
19941 10069 24030 1 149.00000 418.400000
14643 10070 15760 1 149.00000 418.400000
14644 10071 14723 1 149.00000 418.400000
14645 10072 14972 1 149.00000 418.400000
14645 10073 15808 1 149.00000 418.400000
14646 10074 15564 1 149.00000 418.400000
12740 10075 24555 1 149.00000 418.400000
14647 10076 24228 1 149.00000 418.400000
14648 10077 15952 1 149.00000 418.400000
14648 10078 16001 1 149.00000 418.400000
14648 10079 16033 1 149.00000 418.400000
22245 10080 24360 1 149.00000 418.400000
15144 10081 24033 1 149.00000 418.400000
14210 10082 18191 1 149.00000 418.400000
17827 10083 24600 1 149.00000 418.400000
15544 10084 21465 1 149.00000 418.400000
15759 10085 24036 1 149.00000 418.400000
24036 10086 24123 1 149.00000 418.400000
14653 10087 24588 1 149.00000 418.400000
14654 10088 14786 1 149.00000 418.400000
14655 10089 15444 1 149.00000 418.400000
14656 10090 14888 1 149.00000 418.400000
14658 10091 15701 1 149.00000 418.400000
11506 10092 14658 1 149.00000 418.400000
14659 10093 16099 1 149.00000 418.400000
14659 10094 14697 1 149.00000 418.400000
14660 10095 15818 1 149.00000 418.400000
14660 10096 15844 1 149.00000 418.400000
14661 10097 14868 1 149.00000 418.400000
14666 10098 15940 1 149.00000 418.400000
14666 10099 15299 1 149.00000 418.400000
14666 10100 15343 1 149.00000 418.400000
14667 10101 16105 1 149.00000 418.400000
14668 10102 16062 1 149.00000 418.400000
14668 10103 16022 1 149.00000 418.400000
24042 10104 24126 1 149.00000 418.400000
15332 10105 21057 1 149.00000 418.400000
14670 10106 16086 1 149.00000 418.400000
14671 10107 16059 1 149.00000 418.400000
14672 10108 15274 1 149.00000 418.400000
14672 10109 15637 1 149.00000 418.400000
14673 10110 14692 1 149.00000 418.400000
14673 10111 15253 1 149.00000 418.400000
14674 10112 14772 1 149.00000 418.400000
14674 10113 15576 1 149.00000 418.400000
14675 10114 14694 1 149.00000 418.400000
14676 10115 16094 1 149.00000 418.400000
14676 10116 14726 1 149.00000 418.400000
14677 10117 15950 1 149.00000 418.400000
14677 10118 14693 1 149.00000 418.400000
13707 10119 15779 1 149.00000 418.400000
14679 10120 14719 1 149.00000 418.400000
15113 10121 24048 1 149.00000 418.400000
14681 10122 15228 1 149.00000 418.400000
14682 10123 15172 1 149.00000 418.400000
24051 10124 24709 1 149.00000 418.400000
14684 10125 14925 1 149.00000 418.400000
14684 10126 15231 1 149.00000 418.400000
14685 10127 16015 1 149.00000 418.400000
14686 10128 15584 1 149.00000 418.400000
14688 10129 14726 1 149.00000 418.400000
14688 10130 15582 1 149.00000 418.400000
14689 10131 15116 1 149.00000 418.400000
14690 10132 15232 1 149.00000 418.400000
14690 10133 14824 1 149.00000 418.400000
13832 10134 14690 1 149.00000 418.400000
14690 10135 14840 1 149.00000 418.400000
14691 10136 15676 1 149.00000 418.400000
14692 10137 14812 1 149.00000 418.400000
14693 10138 15478 1 149.00000 418.400000
14695 10139 24228 1 149.00000 418.400000
18219 10140 24054 1 149.00000 418.400000
15562 10141 24057 1 149.00000 418.400000
14698 10142 15112 1 149.00000 418.400000
15725 10143 17869 1 149.00000 418.400000
15715 10144 24060 1 149.00000 418.400000
14699 10145 15402 1 149.00000 418.400000
14699 10146 24384 1 149.00000 418.400000
14699 10147 15106 1 149.00000 418.400000
24063 10148 24621 1 149.00000 418.400000
24063 10149 24156 1 149.00000 418.400000
14995 10150 15485 1 149.00000 418.400000
14701 10151 15485 1 149.00000 418.400000
14702 10152 16164 1 149.00000 418.400000
14704 10153 14910 1 149.00000 418.400000
14704 10154 15255 1 149.00000 418.400000
14705 10155 15164 1 149.00000 418.400000
12515 10156 16074 1 149.00000 418.400000
14706 10157 16184 1 149.00000 418.400000
14707 10158 24561 1 149.00000 418.400000
14708 10159 24123 1 149.00000 418.400000
14709 10160 15814 1 149.00000 418.400000
14711 10161 15341 1 149.00000 418.400000
14711 10162 14849 1 149.00000 418.400000
14712 10163 15684 1 149.00000 418.400000
14712 10164 14875 1 149.00000 418.400000
24069 10165 24689 1 149.00000 418.400000
14714 10166 15003 1 149.00000 418.400000
14715 10167 14921 1 149.00000 418.400000
14716 10168 16176 1 149.00000 418.400000
14716 10169 15681 1 149.00000 418.400000
14718 10170 15876 1 149.00000 418.400000
14719 10171 15024 1 149.00000 418.400000
14720 10172 15968 1 149.00000 418.400000
14720 10173 15064 1 149.00000 418.400000
14721 10174 16180 1 149.00000 418.400000
14722 10175 15179 1 149.00000 418.400000
14722 10176 14817 1 149.00000 418.400000
14723 10177 15712 1 149.00000 418.400000
14724 10178 15392 1 149.00000 418.400000
14724 10179 15179 1 149.00000 418.400000
14724 10180 16177 1 149.00000 418.400000
14726 10181 14887 1 149.00000 418.400000
14726 10182 15720 1 149.00000 418.400000
14727 10183 16176 1 149.00000 418.400000
14727 10184 15430 1 149.00000 418.400000
15739 10185 24072 1 149.00000 418.400000
14728 10186 15172 1 149.00000 418.400000
14729 10187 15670 1 149.00000 418.400000
14729 10188 15105 1 149.00000 418.400000
14731 10189 15328 1 149.00000 418.400000
14732 10190 15791 1 149.00000 418.400000
14732 10191 15885 1 149.00000 418.400000
14733 10192 15387 1 149.00000 418.400000
13258 10193 14733 1 149.00000 418.400000
14734 10194 15840 1 149.00000 418.400000
15840 10195 20013 1 149.00000 418.400000
14735 10196 16191 1 149.00000 418.400000
14735 10197 24081 1 149.00000 418.400000
14736 10198 15894 1 149.00000 418.400000
15734 10199 24075 1 149.00000 418.400000
14737 10200 15333 1 149.00000 418.400000
14738 10201 14877 1 149.00000 418.400000
14738 10202 16206 1 149.00000 418.400000
14739 10203 14892 1 149.00000 418.400000
14740 10204 15651 1 149.00000 418.400000
14741 10205 15589 1 149.00000 418.400000
11813 10206 14743 1 149.00000 418.400000
14743 10207 14995 1 149.00000 418.400000
14743 10208 15698 1 149.00000 418.400000
14744 10209 15411 1 149.00000 418.400000
14744 10210 15760 1 149.00000 418.400000
14745 10211 15476 1 149.00000 418.400000
14745 10212 15416 1 149.00000 418.400000
24078 10213 24360 1 149.00000 418.400000
14746 10214 14901 1 149.00000 418.400000
14746 10215 16076 1 149.00000 418.400000
14747 10216 15853 1 149.00000 418.400000
14748 10217 15545 1 149.00000 418.400000
14749 10218 15222 1 149.00000 418.400000
14749 10219 15554 1 149.00000 418.400000
14750 10220 14973 1 149.00000 418.400000
14750 10221 24129 1 149.00000 418.400000
14750 10222 24759 1 149.00000 418.400000
14751 10223 15573 1 149.00000 418.400000
14752 10224 15295 1 149.00000 418.400000
14753 10225 15990 1 149.00000 418.400000
14753 10226 16187 1 149.00000 418.400000
14753 10227 15790 1 149.00000 418.400000
14754 10228 15858 1 149.00000 418.400000
16208 10229 24081 1 149.00000 418.400000
15771 10230 24084 1 149.00000 418.400000
14755 10231 15344 1 149.00000 418.400000
14756 10232 14911 1 149.00000 418.400000
14756 10233 15052 1 149.00000 418.400000
14757 10234 16096 1 149.00000 418.400000
14757 10235 15920 1 149.00000 418.400000
14758 10236 15731 1 149.00000 418.400000
14758 10237 15304 1 149.00000 418.400000
22185 10238 24087 1 149.00000 418.400000
18741 10239 24087 1 149.00000 418.400000
14760 10240 15443 1 149.00000 418.400000
14760 10241 15423 1 149.00000 418.400000
14761 10242 15563 1 149.00000 418.400000
14761 10243 15043 1 149.00000 418.400000
14762 10244 16209 1 149.00000 418.400000
14764 10245 16097 1 149.00000 418.400000
14765 10246 15184 1 149.00000 418.400000
14766 10247 15236 1 149.00000 418.400000
13353 10248 14767 1 149.00000 418.400000
14767 10249 15897 1 149.00000 418.400000
14768 10250 14907 1 149.00000 418.400000
14769 10251 15093 1 149.00000 418.400000
14769 10252 15043 1 149.00000 418.400000
14770 10253 14836 1 149.00000 418.400000
14770 10254 14891 1 149.00000 418.400000
14772 10255 16165 1 149.00000 418.400000
14773 10256 16189 1 149.00000 418.400000
14773 10257 15094 1 149.00000 418.400000
14775 10258 16175 1 149.00000 418.400000
14404 10259 15337 1 149.00000 418.400000
14777 10260 15690 1 149.00000 418.400000
14777 10261 16027 1 149.00000 418.400000
14778 10262 15066 1 149.00000 418.400000
14779 10263 14897 1 149.00000 418.400000
14779 10264 15963 1 149.00000 418.400000
14780 10265 14852 1 149.00000 418.400000
14492 10266 14781 1 149.00000 418.400000
14781 10267 15386 1 149.00000 418.400000
14782 10268 15356 1 149.00000 418.400000
14782 10269 15495 1 149.00000 418.400000
14784 10270 24126 1 149.00000 418.400000
14784 10271 14913 1 149.00000 418.400000
13723 10272 16102 1 149.00000 418.400000
14785 10273 15770 1 149.00000 418.400000
14788 10274 16174 1 149.00000 418.400000
11282 10275 15661 1 149.00000 418.400000
15128 10276 24090 1 149.00000 418.400000
14790 10277 15516 1 149.00000 418.400000
14790 10278 14925 1 149.00000 418.400000
14791 10279 15832 1 149.00000 418.400000
14791 10280 16185 1 149.00000 418.400000
14792 10281 14832 1 149.00000 418.400000
14794 10282 15480 1 149.00000 418.400000
14794 10283 14837 1 149.00000 418.400000
14795 10284 15980 1 149.00000 418.400000
12396 10285 15876 1 149.00000 418.400000
14797 10286 24336 1 149.00000 418.400000
14799 10287 16091 1 149.00000 418.400000
14800 10288 15910 1 149.00000 418.400000
14801 10289 14996 1 149.00000 418.400000
11745 10290 12772 1 149.00000 418.400000
14802 10291 14926 1 149.00000 418.400000
14805 10292 16204 1 149.00000 418.400000
14806 10293 14880 1 149.00000 418.400000
14806 10294 15870 1 149.00000 418.400000
14807 10295 15047 1 149.00000 418.400000
13747 10296 24099 1 149.00000 418.400000
14812 10297 16211 1 149.00000 418.400000
14812 10298 16185 1 149.00000 418.400000
14814 10299 16007 1 149.00000 418.400000
14818 10300 15401 1 149.00000 418.400000
14818 10301 15688 1 149.00000 418.400000
15222 10302 15401 1 149.00000 418.400000
14819 10303 15759 1 149.00000 418.400000
14820 10304 15036 1 149.00000 418.400000
14821 10305 15705 1 149.00000 418.400000
15779 10306 24159 1 149.00000 418.400000
17925 10307 24159 1 149.00000 418.400000
14823 10308 15737 1 149.00000 418.400000
14824 10309 16185 1 149.00000 418.400000
14824 10310 15832 1 149.00000 418.400000
14825 10311 14920 1 149.00000 418.400000
14825 10312 24210 1 149.00000 418.400000
14826 10313 15754 1 149.00000 418.400000
15065 10314 17939 1 149.00000 418.400000
14018 10315 14827 1 149.00000 418.400000
14827 10316 15067 1 149.00000 418.400000
14828 10317 16151 1 149.00000 418.400000
14830 10318 15706 1 149.00000 418.400000
14830 10319 15692 1 149.00000 418.400000
14830 10320 15539 1 149.00000 418.400000
14831 10321 15448 1 149.00000 418.400000
14831 10322 15223 1 149.00000 418.400000
14832 10323 15098 1 149.00000 418.400000
14835 10324 15331 1 149.00000 418.400000
14836 10325 15215 1 149.00000 418.400000
14836 10326 15264 1 149.00000 418.400000
14837 10327 15288 1 149.00000 418.400000
14838 10328 15141 1 149.00000 418.400000
24108 10329 24516 1 149.00000 418.400000
15902 10330 24111 1 149.00000 418.400000
14839 10331 15004 1 149.00000 418.400000
12099 10332 14839 1 149.00000 418.400000
14841 10333 15614 1 149.00000 418.400000
14842 10334 15511 1 149.00000 418.400000
14842 10335 14893 1 149.00000 418.400000
14844 10336 15154 1 149.00000 418.400000
14845 10337 15531 1 149.00000 418.400000
14845 10338 15686 1 149.00000 418.400000
15376 10339 15798 1 149.00000 418.400000
14847 10340 15376 1 149.00000 418.400000
14848 10341 15228 1 149.00000 418.400000
14849 10342 15114 1 149.00000 418.400000
14849 10343 15758 1 149.00000 418.400000
14850 10344 16212 1 149.00000 418.400000
14850 10345 14928 1 149.00000 418.400000
14851 10346 15696 1 149.00000 418.400000
14852 10347 16135 1 149.00000 418.400000
14853 10348 15555 1 149.00000 418.400000
14854 10349 15414 1 149.00000 418.400000
14855 10350 16190 1 149.00000 418.400000
14857 10351 16027 1 149.00000 418.400000
14857 10352 15192 1 149.00000 418.400000
14857 10353 16101 1 149.00000 418.400000
14858 10354 15801 1 149.00000 418.400000
14859 10355 24714 1 149.00000 418.400000
16098 10356 21741 1 149.00000 418.400000
15786 10357 24123 1 149.00000 418.400000
14862 10358 14918 1 149.00000 418.400000
14862 10359 16041 1 149.00000 418.400000
14864 10360 16202 1 149.00000 418.400000
14864 10361 15123 1 149.00000 418.400000
14864 10362 15265 1 149.00000 418.400000
14865 10363 16005 1 149.00000 418.400000
14865 10364 15693 1 149.00000 418.400000
14865 10365 15581 1 149.00000 418.400000
14866 10366 15891 1 149.00000 418.400000
14866 10367 15596 1 149.00000 418.400000
14867 10368 16113 1 149.00000 418.400000
14867 10369 15186 1 149.00000 418.400000
13599 10370 14868 1 149.00000 418.400000
14868 10371 24594 1 149.00000 418.400000
14869 10372 15689 1 149.00000 418.400000
14869 10373 15022 1 149.00000 418.400000
14869 10374 16136 1 149.00000 418.400000
14869 10375 16110 1 149.00000 418.400000
14872 10376 15498 1 149.00000 418.400000
14873 10377 16036 1 149.00000 418.400000
14874 10378 15776 1 149.00000 418.400000
14874 10379 15811 1 149.00000 418.400000
14874 10380 15048 1 149.00000 418.400000
14875 10381 15417 1 149.00000 418.400000
14875 10382 15095 1 149.00000 418.400000
14876 10383 14961 1 149.00000 418.400000
14877 10384 15174 1 149.00000 418.400000
14878 10385 24516 1 149.00000 418.400000
14878 10386 16039 1 149.00000 418.400000
14879 10387 15745 1 149.00000 418.400000
14879 10388 15581 1 149.00000 418.400000
14885 10389 15778 1 149.00000 418.400000
14885 10390 15438 1 149.00000 418.400000
14889 10391 16177 1 149.00000 418.400000
14890 10392 15369 1 149.00000 418.400000
14890 10393 15885 1 149.00000 418.400000
14890 10394 15967 1 149.00000 418.400000
14892 10395 15605 1 149.00000 418.400000
14895 10396 15233 1 149.00000 418.400000
16987 10397 17995 1 149.00000 418.400000
14896 10398 15017 1 149.00000 418.400000
14898 10399 15305 1 149.00000 418.400000
14899 10400 15323 1 149.00000 418.400000
13251 10401 15794 1 149.00000 418.400000
14901 10402 16208 1 149.00000 418.400000
14902 10403 15464 1 149.00000 418.400000
14902 10404 15335 1 149.00000 418.400000
14903 10405 15381 1 149.00000 418.400000
13774 10406 14903 1 149.00000 418.400000
13771 10407 14978 1 149.00000 418.400000
14905 10408 14915 1 149.00000 418.400000
14906 10409 18121 1 149.00000 418.400000
14907 10410 14910 1 149.00000 418.400000
14908 10411 15828 1 149.00000 418.400000
14909 10412 15224 1 149.00000 418.400000
24132 10413 24561 1 149.00000 418.400000
13398 10414 24132 1 149.00000 418.400000
14910 10415 15884 1 149.00000 418.400000
14912 10416 15452 1 149.00000 418.400000
14912 10417 15160 1 149.00000 418.400000
14913 10418 15187 1 149.00000 418.400000
14915 10419 16023 1 149.00000 418.400000
14915 10420 16007 1 149.00000 418.400000
14916 10421 14936 1 149.00000 418.400000
11464 10422 15777 1 149.00000 418.400000
14920 10423 15196 1 149.00000 418.400000
14922 10424 15877 1 149.00000 418.400000
14923 10425 24321 1 149.00000 418.400000
14924 10426 15506 1 149.00000 418.400000
14926 10427 15641 1 149.00000 418.400000
14927 10428 14992 1 149.00000 418.400000
14927 10429 15821 1 149.00000 418.400000
14928 10430 15100 1 149.00000 418.400000
14928 10431 15175 1 149.00000 418.400000
14929 10432 15111 1 149.00000 418.400000
14933 10433 15427 1 149.00000 418.400000
14935 10434 15633 1 149.00000 418.400000
15670 10435 24138 1 149.00000 418.400000
16055 10436 24138 1 149.00000 418.400000
14939 10437 15421 1 149.00000 418.400000
14939 10438 14959 1 149.00000 418.400000
14939 10439 24381 1 149.00000 418.400000
14939 10440 18205 1 149.00000 418.400000
24141 10441 24315 1 149.00000 418.400000
15703 10442 24141 1 149.00000 418.400000
14940 10443 15524 1 149.00000 418.400000
14941 10444 15614 1 149.00000 418.400000
14941 10445 15892 1 149.00000 418.400000
14942 10446 16071 1 149.00000 418.400000
14943 10447 15019 1 149.00000 418.400000
14944 10448 15329 1 149.00000 418.400000
14945 10449 16166 1 149.00000 418.400000
14945 10450 24294 1 149.00000 418.400000
14946 10451 15000 1 149.00000 418.400000
14946 10452 15727 1 149.00000 418.400000
14946 10453 15502 1 149.00000 418.400000
14948 10454 16083 1 149.00000 418.400000
14948 10455 16093 1 149.00000 418.400000
14950 10456 15545 1 149.00000 418.400000
14951 10457 24411 1 149.00000 418.400000
14952 10458 15702 1 149.00000 418.400000
14044 10459 15424 1 149.00000 418.400000
14953 10460 15623 1 149.00000 418.400000
15307 10461 24144 1 149.00000 418.400000
15715 10462 24144 1 149.00000 418.400000
24147 10463 24684 1 149.00000 418.400000
14955 10464 15439 1 149.00000 418.400000
14957 10465 16152 1 149.00000 418.400000
14958 10466 15672 1 149.00000 418.400000
14401 10467 14958 1 149.00000 418.400000
12140 10468 14959 1 149.00000 418.400000
14960 10469 15639 1 149.00000 418.400000
14962 10470 15391 1 149.00000 418.400000
12733 10471 14963 1 149.00000 418.400000
14963 10472 15336 1 149.00000 418.400000
14964 10473 15742 1 149.00000 418.400000
14964 10474 15293 1 149.00000 418.400000
15553 10475 24150 1 149.00000 418.400000
14965 10476 15159 1 149.00000 418.400000
14967 10477 15140 1 149.00000 418.400000
14969 10478 15078 1 149.00000 418.400000
14970 10479 15349 1 149.00000 418.400000
13116 10480 14974 1 149.00000 418.400000
14974 10481 15850 1 149.00000 418.400000
14975 10482 15025 1 149.00000 418.400000
14976 10483 15708 1 149.00000 418.400000
14977 10484 15665 1 149.00000 418.400000
14978 10485 15117 1 149.00000 418.400000
14979 10486 15047 1 149.00000 418.400000
14981 10487 15509 1 149.00000 418.400000
14981 10488 24399 1 149.00000 418.400000
13750 10489 14982 1 149.00000 418.400000
14982 10490 15704 1 149.00000 418.400000
15368 10491 24153 1 149.00000 418.400000
12233 10492 24156 1 149.00000 418.400000
14984 10493 15525 1 149.00000 418.400000
14987 10494 15594 1 149.00000 418.400000
14988 10495 15736 1 149.00000 418.400000
11780 10496 14989 1 149.00000 418.400000
14990 10497 16119 1 149.00000 418.400000
14991 10498 15708 1 149.00000 418.400000
14992 10499 15353 1 149.00000 418.400000
14993 10500 24336 1 149.00000 418.400000
14995 10501 15795 1 149.00000 418.400000
14999 10502 15888 1 149.00000 418.400000
14999 10503 16087 1 149.00000 418.400000
15001 10504 15518 1 149.00000 418.400000
15002 10505 15802 1 149.00000 418.400000
15002 10506 15058 1 149.00000 418.400000
15003 10507 15223 1 149.00000 418.400000
15005 10508 15077 1 149.00000 418.400000
15007 10509 16049 1 149.00000 418.400000
15007 10510 16042 1 149.00000 418.400000
15007 10511 15182 1 149.00000 418.400000
15009 10512 15955 1 149.00000 418.400000
13398 10513 24174 1 149.00000 418.400000
22941 10514 24174 1 149.00000 418.400000
15011 10515 24204 1 149.00000 418.400000
15011 10516 15038 1 149.00000 418.400000
15012 10517 15269 1 149.00000 418.400000
12360 10518 13059 1 149.00000 418.400000
15014 10519 15095 1 149.00000 418.400000
15015 10520 15712 1 149.00000 418.400000
14377 10521 15324 1 149.00000 418.400000
15017 10522 15142 1 149.00000 418.400000
15017 10523 15672 1 149.00000 418.400000
15019 10524 15809 1 149.00000 418.400000
15019 10525 15979 1 149.00000 418.400000
15020 10526 15102 1 149.00000 418.400000
15022 10527 15552 1 149.00000 418.400000
15023 10528 15830 1 149.00000 418.400000
15025 10529 15768 1 149.00000 418.400000
15026 10530 15076 1 149.00000 418.400000
12395 10531 15621 1 149.00000 418.400000
12395 10532 15490 1 149.00000 418.400000
15029 10533 15905 1 149.00000 418.400000
15030 10534 15420 1 149.00000 418.400000
15030 10535 15657 1 149.00000 418.400000
15031 10536 24444 1 149.00000 418.400000
15032 10537 16041 1 149.00000 418.400000
15033 10538 15134 1 149.00000 418.400000
15034 10539 15417 1 149.00000 418.400000
15035 10540 15136 1 149.00000 418.400000
15036 10541 15334 1 149.00000 418.400000
15036 10542 15977 1 149.00000 418.400000
15037 10543 15671 1 149.00000 418.400000
15038 10544 24492 1 149.00000 418.400000
15039 10545 24789 1 149.00000 418.400000
15040 10546 15351 1 149.00000 418.400000
15040 10547 15313 1 149.00000 418.400000
15041 10548 16087 1 149.00000 418.400000
15307 10549 18051 1 149.00000 418.400000
15042 10550 24769 1 149.00000 418.400000
15042 10551 24339 1 149.00000 418.400000
15042 10552 15124 1 149.00000 418.400000
15044 10553 15773 1 149.00000 418.400000
15045 10554 16149 1 149.00000 418.400000
15045 10555 24612 1 149.00000 418.400000
15046 10556 15986 1 149.00000 418.400000
15046 10557 15941 1 149.00000 418.400000
15046 10558 15055 1 149.00000 418.400000
15048 10559 16147 1 149.00000 418.400000
24183 10560 24240 1 149.00000 418.400000
15807 10561 24183 1 149.00000 418.400000
15049 10562 15903 1 149.00000 418.400000
15049 10563 15664 1 149.00000 418.400000
15049 10564 15384 1 149.00000 418.400000
15050 10565 15570 1 149.00000 418.400000
15051 10566 15081 1 149.00000 418.400000
24186 10567 24654 1 149.00000 418.400000
15052 10568 15858 1 149.00000 418.400000
15053 10569 24489 1 149.00000 418.400000
15053 10570 15501 1 149.00000 418.400000
15054 10571 15200 1 149.00000 418.400000
15905 10572 24192 1 149.00000 418.400000
15057 10573 16191 1 149.00000 418.400000
15058 10574 15888 1 149.00000 418.400000
15059 10575 15437 1 149.00000 418.400000
12608 10576 15059 1 149.00000 418.400000
15059 10577 15935 1 149.00000 418.400000
15061 10578 15295 1 149.00000 418.400000
15063 10579 16068 1 149.00000 418.400000
15063 10580 15912 1 149.00000 418.400000
15482 10581 24195 1 149.00000 418.400000
24195 10582 24570 1 149.00000 418.400000
15065 10583 15888 1 149.00000 418.400000
15066 10584 15289 1 149.00000 418.400000
15066 10585 15092 1 149.00000 418.400000
15067 10586 15139 1 149.00000 418.400000
24198 10587 24543 1 149.00000 418.400000
15068 10588 15356 1 149.00000 418.400000
15071 10589 15909 1 149.00000 418.400000
15072 10590 16141 1 149.00000 418.400000
15090 10591 24204 1 149.00000 418.400000
15590 10592 24207 1 149.00000 418.400000
16112 10593 24207 1 149.00000 418.400000
15074 10594 15778 1 149.00000 418.400000
15075 10595 15851 1 149.00000 418.400000
15076 10596 16086 1 149.00000 418.400000
15077 10597 15481 1 149.00000 418.400000
15078 10598 15237 1 149.00000 418.400000
15079 10599 15644 1 149.00000 418.400000
15080 10600 16139 1 149.00000 418.400000
15080 10601 16044 1 149.00000 418.400000
15083 10602 16124 1 149.00000 418.400000
15084 10603 24546 1 149.00000 418.400000
15084 10604 15132 1 149.00000 418.400000
15085 10605 15320 1 149.00000 418.400000
15086 10606 16111 1 149.00000 418.400000
15703 10607 24213 1 149.00000 418.400000
15089 10608 15817 1 149.00000 418.400000
15089 10609 15966 1 149.00000 418.400000
15090 10610 15974 1 149.00000 418.400000
15090 10611 24462 1 149.00000 418.400000
15092 10612 15636 1 149.00000 418.400000
15092 10613 15758 1 149.00000 418.400000
15094 10614 16137 1 149.00000 418.400000
15096 10615 15924 1 149.00000 418.400000
15098 10616 15249 1 149.00000 418.400000
15099 10617 15471 1 149.00000 418.400000
15099 10618 15252 1 149.00000 418.400000
15100 10619 15762 1 149.00000 418.400000
15103 10620 15878 1 149.00000 418.400000
15103 10621 15263 1 149.00000 418.400000
15104 10622 15622 1 149.00000 418.400000
15105 10623 15949 1 149.00000 418.400000
15105 10624 16031 1 149.00000 418.400000
13147 10625 15322 1 149.00000 418.400000
24225 10626 24606 1 149.00000 418.400000
15106 10627 15114 1 149.00000 418.400000
12577 10628 15950 1 149.00000 418.400000
15107 10629 15497 1 149.00000 418.400000
15107 10630 15792 1 149.00000 418.400000
15108 10631 15568 1 149.00000 418.400000
15111 10632 24618 1 149.00000 418.400000
15112 10633 15238 1 149.00000 418.400000
15114 10634 15246 1 149.00000 418.400000
15116 10635 15634 1 149.00000 418.400000
15116 10636 15523 1 149.00000 418.400000
15118 10637 15917 1 149.00000 418.400000
13781 10638 15119 1 149.00000 418.400000
15120 10639 16036 1 149.00000 418.400000
15120 10640 15560 1 149.00000 418.400000
15120 10641 15618 1 149.00000 418.400000
15120 10642 15805 1 149.00000 418.400000
15121 10643 15620 1 149.00000 418.400000
15122 10644 15442 1 149.00000 418.400000
15125 10645 15770 1 149.00000 418.400000
15125 10646 15906 1 149.00000 418.400000
15105 10647 15126 1 149.00000 418.400000
15127 10648 15145 1 149.00000 418.400000
15128 10649 19929 1 149.00000 418.400000
15129 10650 15932 1 149.00000 418.400000
15130 10651 16002 1 149.00000 418.400000
15130 10652 15212 1 149.00000 418.400000
15131 10653 15861 1 149.00000 418.400000
15132 10654 15226 1 149.00000 418.400000
15133 10655 15709 1 149.00000 418.400000
15133 10656 15635 1 149.00000 418.400000
15133 10657 15509 1 149.00000 418.400000
15134 10658 15394 1 149.00000 418.400000
15137 10659 15190 1 149.00000 418.400000
15138 10660 15772 1 149.00000 418.400000
14874 10661 15138 1 149.00000 418.400000
15139 10662 15622 1 149.00000 418.400000
15140 10663 15623 1 149.00000 418.400000
15141 10664 15208 1 149.00000 418.400000
15142 10665 15262 1 149.00000 418.400000
15144 10666 15251 1 149.00000 418.400000
15146 10667 15335 1 149.00000 418.400000
15148 10668 15161 1 149.00000 418.400000
15150 10669 15609 1 149.00000 418.400000
15150 10670 24588 1 149.00000 418.400000
15150 10671 24438 1 149.00000 418.400000
14635 10672 15151 1 149.00000 418.400000
15156 10673 15461 1 149.00000 418.400000
15157 10674 24309 1 149.00000 418.400000
15158 10675 15236 1 149.00000 418.400000
11893 10676 15599 1 149.00000 418.400000
13887 10677 15160 1 149.00000 418.400000
24237 10678 24429 1 149.00000 418.400000
15730 10679 24237 1 149.00000 418.400000
14395 10680 16033 1 149.00000 418.400000
12608 10681 15526 1 149.00000 418.400000
15164 10682 15812 1 149.00000 418.400000
15165 10683 15536 1 149.00000 418.400000
15166 10684 15957 1 149.00000 418.400000
15734 10685 24246 1 149.00000 418.400000
24246 10686 24423 1 149.00000 418.400000
15168 10687 15489 1 149.00000 418.400000
15169 10688 16168 1 149.00000 418.400000
15169 10689 16156 1 149.00000 418.400000
15169 10690 15278 1 149.00000 418.400000
15170 10691 15859 1 149.00000 418.400000
15171 10692 15611 1 149.00000 418.400000
15171 10693 15717 1 149.00000 418.400000
15597 10694 18121 1 149.00000 418.400000
15173 10695 16129 1 149.00000 418.400000
15174 10696 15862 1 149.00000 418.400000
15178 10697 15685 1 149.00000 418.400000
14722 10698 15424 1 149.00000 418.400000
15181 10699 16045 1 149.00000 418.400000
15181 10700 15801 1 149.00000 418.400000
15377 10701 18149 1 149.00000 418.400000
15184 10702 15764 1 149.00000 418.400000
15190 10703 16113 1 149.00000 418.400000
13237 10704 15191 1 149.00000 418.400000
24252 10705 24387 1 149.00000 418.400000
15193 10706 15977 1 149.00000 418.400000
15194 10707 15972 1 149.00000 418.400000
15194 10708 15388 1 149.00000 418.400000
15195 10709 16053 1 149.00000 418.400000
15197 10710 15382 1 149.00000 418.400000
15197 10711 24585 1 149.00000 418.400000
15199 10712 15499 1 149.00000 418.400000
15199 10713 16142 1 149.00000 418.400000
15201 10714 15479 1 149.00000 418.400000
15201 10715 15535 1 149.00000 418.400000
15203 10716 15932 1 149.00000 418.400000
15204 10717 15822 1 149.00000 418.400000
15205 10718 15436 1 149.00000 418.400000
15207 10719 15880 1 149.00000 418.400000
15208 10720 15352 1 149.00000 418.400000
15209 10721 15754 1 149.00000 418.400000
15214 10722 15793 1 149.00000 418.400000
15214 10723 15263 1 149.00000 418.400000
15218 10724 15614 1 149.00000 418.400000
15218 10725 15334 1 149.00000 418.400000
15220 10726 15872 1 149.00000 418.400000
13810 10727 15628 1 149.00000 418.400000
15221 10728 15738 1 149.00000 418.400000
15224 10729 15577 1 149.00000 418.400000
15226 10730 15691 1 149.00000 418.400000
15227 10731 15383 1 149.00000 418.400000
15228 10732 15513 1 149.00000 418.400000
15229 10733 16071 1 149.00000 418.400000
15229 10734 16020 1 149.00000 418.400000
15230 10735 15645 1 149.00000 418.400000
15591 10736 24258 1 149.00000 418.400000
14190 10737 15516 1 149.00000 418.400000
15231 10738 15626 1 149.00000 418.400000
15232 10739 15683 1 149.00000 418.400000
15235 10740 15298 1 149.00000 418.400000
14958 10741 15236 1 149.00000 418.400000
16111 10742 24261 1 149.00000 418.400000
16153 10743 24261 1 149.00000 418.400000
15579 10744 24264 1 149.00000 418.400000
15238 10745 15764 1 149.00000 418.400000
15238 10746 15754 1 149.00000 418.400000
24267 10747 24534 1 149.00000 418.400000
15239 10748 16185 1 149.00000 418.400000
15240 10749 15424 1 149.00000 418.400000
15241 10750 15260 1 149.00000 418.400000
15244 10751 15714 1 149.00000 418.400000
15247 10752 15294 1 149.00000 418.400000
15248 10753 15416 1 149.00000 418.400000
15248 10754 15925 1 149.00000 418.400000
14097 10755 15254 1 149.00000 418.400000
24273 10756 24468 1 149.00000 418.400000
16145 10757 24273 1 149.00000 418.400000
15666 10758 24276 1 149.00000 418.400000
15257 10759 24393 1 149.00000 418.400000
15259 10760 15777 1 149.00000 418.400000
15260 10761 15750 1 149.00000 418.400000
15261 10762 15899 1 149.00000 418.400000
15263 10763 15589 1 149.00000 418.400000
15267 10764 24513 1 149.00000 418.400000
15267 10765 15282 1 149.00000 418.400000
15267 10766 24537 1 149.00000 418.400000
15268 10767 15270 1 149.00000 418.400000
15269 10768 15419 1 149.00000 418.400000
15270 10769 15592 1 149.00000 418.400000
15272 10770 15709 1 149.00000 418.400000
15273 10771 15418 1 149.00000 418.400000
15274 10772 15447 1 149.00000 418.400000
15275 10773 15381 1 149.00000 418.400000
15276 10774 15422 1 149.00000 418.400000
15277 10775 15613 1 149.00000 418.400000
15278 10776 24582 1 149.00000 418.400000
15278 10777 15749 1 149.00000 418.400000
15280 10778 15768 1 149.00000 418.400000
15281 10779 15464 1 149.00000 418.400000
15281 10780 15605 1 149.00000 418.400000
15285 10781 16127 1 149.00000 418.400000
15288 10782 15296 1 149.00000 418.400000
15288 10783 15301 1 149.00000 418.400000
15291 10784 24764 1 149.00000 418.400000
15294 10785 15366 1 149.00000 418.400000
15294 10786 24804 1 149.00000 418.400000
15296 10787 15371 1 149.00000 418.400000
15299 10788 15989 1 149.00000 418.400000
15301 10789 16091 1 149.00000 418.400000
24300 10790 24519 1 149.00000 418.400000
15302 10791 15910 1 149.00000 418.400000
15303 10792 16084 1 149.00000 418.400000
13624 10793 15303 1 149.00000 418.400000
15304 10794 15763 1 149.00000 418.400000
15898 10795 18233 1 149.00000 418.400000
15305 10796 16049 1 149.00000 418.400000
15306 10797 15483 1 149.00000 418.400000
15306 10798 15818 1 149.00000 418.400000
15308 10799 15767 1 149.00000 418.400000
15311 10800 16208 1 149.00000 418.400000
15311 10801 15519 1 149.00000 418.400000
24303 10802 24327 1 149.00000 418.400000
15316 10803 15800 1 149.00000 418.400000
16172 10804 24306 1 149.00000 418.400000
15317 10805 16134 1 149.00000 418.400000
15319 10806 15578 1 149.00000 418.400000
15322 10807 15839 1 149.00000 418.400000
15323 10808 24779 1 149.00000 418.400000
15324 10809 16047 1 149.00000 418.400000
15324 10810 15742 1 149.00000 418.400000
15327 10811 15548 1 149.00000 418.400000
15329 10812 16076 1 149.00000 418.400000
15332 10813 24324 1 149.00000 418.400000
24315 10814 24390 1 149.00000 418.400000
15337 10815 15427 1 149.00000 418.400000
15338 10816 15629 1 149.00000 418.400000
15340 10817 16140 1 149.00000 418.400000
15340 10818 15899 1 149.00000 418.400000
14363 10819 15342 1 149.00000 418.400000
15344 10820 15641 1 149.00000 418.400000
24318 10821 24749 1 149.00000 418.400000
14922 10822 24318 1 149.00000 418.400000
15348 10823 15882 1 149.00000 418.400000
15348 10824 15579 1 149.00000 418.400000
15349 10825 15564 1 149.00000 418.400000
15350 10826 15757 1 149.00000 418.400000
16080 10827 24324 1 149.00000 418.400000
15426 10828 24327 1 149.00000 418.400000
15359 10829 24664 1 149.00000 418.400000
15362 10830 16159 1 149.00000 418.400000
15365 10831 15715 1 149.00000 418.400000
15366 10832 15477 1 149.00000 418.400000
15368 10833 15962 1 149.00000 418.400000
15370 10834 15514 1 149.00000 418.400000
11633 10835 15370 1 149.00000 418.400000
15372 10836 24138 1 149.00000 418.400000
15372 10837 16148 1 149.00000 418.400000
15373 10838 15625 1 149.00000 418.400000
13258 10839 15387 1 149.00000 418.400000
15838 10840 24330 1 149.00000 418.400000
24330 10841 24459 1 149.00000 418.400000
15375 10842 15570 1 149.00000 418.400000
12733 10843 15375 1 149.00000 418.400000
15378 10844 15972 1 149.00000 418.400000
15379 10845 15923 1 149.00000 418.400000
15379 10846 15856 1 149.00000 418.400000
15380 10847 16065 1 149.00000 418.400000
15382 10848 16072 1 149.00000 418.400000
15385 10849 16129 1 149.00000 418.400000
15390 10850 16043 1 149.00000 418.400000
15390 10851 15878 1 149.00000 418.400000
15394 10852 24483 1 149.00000 418.400000
15395 10853 16156 1 149.00000 418.400000
15396 10854 15459 1 149.00000 418.400000
15397 10855 15463 1 149.00000 418.400000
15399 10856 15716 1 149.00000 418.400000
15399 10857 15553 1 149.00000 418.400000
15828 10858 24348 1 149.00000 418.400000
15400 10859 15403 1 149.00000 418.400000
15401 10860 15554 1 149.00000 418.400000
15401 10861 15826 1 149.00000 418.400000
13844 10862 15404 1 149.00000 418.400000
15407 10863 15526 1 149.00000 418.400000
13306 10864 24357 1 149.00000 418.400000
15411 10865 15457 1 149.00000 418.400000
24354 10866 24441 1 149.00000 418.400000
15470 10867 24357 1 149.00000 418.400000
15455 10868 18331 1 149.00000 418.400000
16181 10869 18331 1 149.00000 418.400000
15414 10870 15456 1 149.00000 418.400000
15420 10871 15701 1 149.00000 418.400000
13408 10872 16007 1 149.00000 418.400000
15421 10873 16153 1 149.00000 418.400000
15421 10874 15604 1 149.00000 418.400000
15422 10875 15533 1 149.00000 418.400000
15423 10876 15489 1 149.00000 418.400000
15240 10877 15908 1 149.00000 418.400000
15429 10878 15530 1 149.00000 418.400000
15429 10879 15727 1 149.00000 418.400000
15430 10880 16136 1 149.00000 418.400000
15431 10881 16183 1 149.00000 418.400000
15434 10882 15441 1 149.00000 418.400000
15435 10883 15722 1 149.00000 418.400000
13852 10884 15475 1 149.00000 418.400000
15435 10885 15745 1 149.00000 418.400000
15436 10886 16182 1 149.00000 418.400000
16068 10887 23877 1 149.00000 418.400000
15442 10888 16117 1 149.00000 418.400000
15443 10889 15473 1 149.00000 418.400000
15444 10890 15724 1 149.00000 418.400000
15988 10891 24372 1 149.00000 418.400000
15446 10892 15967 1 149.00000 418.400000
15446 10893 15712 1 149.00000 418.400000
15446 10894 16138 1 149.00000 418.400000
15447 10895 15826 1 149.00000 418.400000
15450 10896 16187 1 149.00000 418.400000
15454 10897 16062 1 149.00000 418.400000
15456 10898 15886 1 149.00000 418.400000
15456 10899 16082 1 149.00000 418.400000
15457 10900 15556 1 149.00000 418.400000
15396 10901 15907 1 149.00000 418.400000
19209 10902 24489 1 149.00000 418.400000
15463 10903 15488 1 149.00000 418.400000
15465 10904 15837 1 149.00000 418.400000
15465 10905 15674 1 149.00000 418.400000
15466 10906 24486 1 149.00000 418.400000
15467 10907 16039 1 149.00000 418.400000
15468 10908 15502 1 149.00000 418.400000
15469 10909 16075 1 149.00000 418.400000
15469 10910 15969 1 149.00000 418.400000
24381 10911 24402 1 149.00000 418.400000
15470 10912 16166 1 149.00000 418.400000
11960 10913 15855 1 149.00000 418.400000
15473 10914 16003 1 149.00000 418.400000
15476 10915 15694 1 149.00000 418.400000
15477 10916 24480 1 149.00000 418.400000
11764 10917 15478 1 149.00000 418.400000
15481 10918 15842 1 149.00000 418.400000
15487 10919 15593 1 149.00000 418.400000
14117 10920 15855 1 149.00000 418.400000
15491 10921 16058 1 149.00000 418.400000
15491 10922 15926 1 149.00000 418.400000
24387 10923 24694 1 149.00000 418.400000
15495 10924 15750 1 149.00000 418.400000
15498 10925 15667 1 149.00000 418.400000
15501 10926 15658 1 149.00000 418.400000
15502 10927 15679 1 149.00000 418.400000
15503 10928 15658 1 149.00000 418.400000
15503 10929 16026 1 149.00000 418.400000
15504 10930 15683 1 149.00000 418.400000
15511 10931 16109 1 149.00000 418.400000
15515 10932 15978 1 149.00000 418.400000
15518 10933 15815 1 149.00000 418.400000
15521 10934 16196 1 149.00000 418.400000
15526 10935 15843 1 149.00000 418.400000
15535 10936 15689 1 149.00000 418.400000
15537 10937 15872 1 149.00000 418.400000
15538 10938 16073 1 149.00000 418.400000
15541 10939 16186 1 149.00000 418.400000
24432 10940 24659 1 149.00000 418.400000
15542 10941 15879 1 149.00000 418.400000
15971 10942 24411 1 149.00000 418.400000
15546 10943 15817 1 149.00000 418.400000
13682 10944 15546 1 149.00000 418.400000
15548 10945 24597 1 149.00000 418.400000
15549 10946 15741 1 149.00000 418.400000
15550 10947 16198 1 149.00000 418.400000
15551 10948 15817 1 149.00000 418.400000
24417 10949 24669 1 149.00000 418.400000
15669 10950 24417 1 149.00000 418.400000
15554 10951 15616 1 149.00000 418.400000
15554 10952 15685 1 149.00000 418.400000
15555 10953 16124 1 149.00000 418.400000
15558 10954 15954 1 149.00000 418.400000
15559 10955 15665 1 149.00000 418.400000
15561 10956 15606 1 149.00000 418.400000
24664 10957 24794 1 149.00000 418.400000
15569 10958 15740 1 149.00000 418.400000
15571 10959 16135 1 149.00000 418.400000
15571 10960 16026 1 149.00000 418.400000
15571 10961 16187 1 149.00000 418.400000
15572 10962 15659 1 149.00000 418.400000
15574 10963 15750 1 149.00000 418.400000
15595 10964 24429 1 149.00000 418.400000
16029 10965 24429 1 149.00000 418.400000
15575 10966 15694 1 149.00000 418.400000
15577 10967 15927 1 149.00000 418.400000
15578 10968 15824 1 149.00000 418.400000
15579 10969 15668 1 149.00000 418.400000
15580 10970 15630 1 149.00000 418.400000
15581 10971 15734 1 149.00000 418.400000
15582 10972 15992 1 149.00000 418.400000
15585 10973 16032 1 149.00000 418.400000
11693 10974 24555 1 149.00000 418.400000
15587 10975 15826 1 149.00000 418.400000
15590 10976 15808 1 149.00000 418.400000
15593 10977 15643 1 149.00000 418.400000
15593 10978 16049 1 149.00000 418.400000
15594 10979 15899 1 149.00000 418.400000
15680 10980 15933 1 149.00000 418.400000
15595 10981 15933 1 149.00000 418.400000
15596 10982 15612 1 149.00000 418.400000
15600 10983 15909 1 149.00000 418.400000
15600 10984 16024 1 149.00000 418.400000
15600 10985 16109 1 149.00000 418.400000
15601 10986 15984 1 149.00000 418.400000
15605 10987 15841 1 149.00000 418.400000
16153 10988 24438 1 149.00000 418.400000
15606 10989 16073 1 149.00000 418.400000
15610 10990 15918 1 149.00000 418.400000
16112 10991 24447 1 149.00000 418.400000
15623 10992 15955 1 149.00000 418.400000
15626 10993 16103 1 149.00000 418.400000
15628 10994 15837 1 149.00000 418.400000
24453 10995 24465 1 149.00000 418.400000
15638 10996 16210 1 149.00000 418.400000
15639 10997 15927 1 149.00000 418.400000
11598 10998 15645 1 149.00000 418.400000
15647 10999 15718 1 149.00000 418.400000
15647 11000 15834 1 149.00000 418.400000
15648 11001 15976 1 149.00000 418.400000
15648 11002 15908 1 149.00000 418.400000
15650 11003 15755 1 149.00000 418.400000
15650 11004 15726 1 149.00000 418.400000
15657 11005 16008 1 149.00000 418.400000
13928 11006 15790 1 149.00000 418.400000
15663 11007 16092 1 149.00000 418.400000
15663 11008 15781 1 149.00000 418.400000
15833 11009 24462 1 149.00000 418.400000
15672 11010 16025 1 149.00000 418.400000
15675 11011 15918 1 149.00000 418.400000
15678 11012 15713 1 149.00000 418.400000
15679 11013 16018 1 149.00000 418.400000
15680 11014 24522 1 149.00000 418.400000
15681 11015 16191 1 149.00000 418.400000
15682 11016 16156 1 149.00000 418.400000
15504 11017 16063 1 149.00000 418.400000
15684 11018 16046 1 149.00000 418.400000
15684 11019 16180 1 149.00000 418.400000
15691 11020 15778 1 149.00000 418.400000
15778 11021 15959 1 149.00000 418.400000
14734 11022 15692 1 149.00000 418.400000
15693 11023 15777 1 149.00000 418.400000
15699 11024 16146 1 149.00000 418.400000
15699 11025 15863 1 149.00000 418.400000
15700 11026 15984 1 149.00000 418.400000
15704 11027 15972 1 149.00000 418.400000
15706 11028 15830 1 149.00000 418.400000
15707 11029 24576 1 149.00000 418.400000
15707 11030 15980 1 149.00000 418.400000
15708 11031 16065 1 149.00000 418.400000
24471 11032 24759 1 149.00000 418.400000
15713 11033 16194 1 149.00000 418.400000
15721 11034 15921 1 149.00000 418.400000
15727 11035 15842 1 149.00000 418.400000
15729 11036 16200 1 149.00000 418.400000
15731 11037 15789 1 149.00000 418.400000
15733 11038 15788 1 149.00000 418.400000
15740 11039 16145 1 149.00000 418.400000
12889 11040 15747 1 149.00000 418.400000
15751 11041 15934 1 149.00000 418.400000
15751 11042 15965 1 149.00000 418.400000
15756 11043 16151 1 149.00000 418.400000
24585 11044 24699 1 149.00000 418.400000
15759 11045 15863 1 149.00000 418.400000
15762 11046 15964 1 149.00000 418.400000
15762 11047 16142 1 149.00000 418.400000
15764 11048 16079 1 149.00000 418.400000
15765 11049 24567 1 149.00000 418.400000
15767 11050 15816 1 149.00000 418.400000
15773 11051 15882 1 149.00000 418.400000
15779 11052 15833 1 149.00000 418.400000
15780 11053 16033 1 149.00000 418.400000
14348 11054 16036 1 149.00000 418.400000
14348 11055 16019 1 149.00000 418.400000
15784 11056 16127 1 149.00000 418.400000
15792 11057 15901 1 149.00000 418.400000
15794 11058 16137 1 149.00000 418.400000
15796 11059 16174 1 149.00000 418.400000
15797 11060 15983 1 149.00000 418.400000
15797 11061 15887 1 149.00000 418.400000
11939 11062 24709 1 149.00000 418.400000
15799 11063 15989 1 149.00000 418.400000
15804 11064 16121 1 149.00000 418.400000
15806 11065 16044 1 149.00000 418.400000
15808 11066 16073 1 149.00000 418.400000
12505 11067 15977 1 149.00000 418.400000
15811 11068 16169 1 149.00000 418.400000
15994 11069 24492 1 149.00000 418.400000
15813 11070 16004 1 149.00000 418.400000
15814 11071 15845 1 149.00000 418.400000
15675 11072 15815 1 149.00000 418.400000
15815 11073 15952 1 149.00000 418.400000
15820 11074 15944 1 149.00000 418.400000
15828 11075 24495 1 149.00000 418.400000
15827 11076 16020 1 149.00000 418.400000
15835 11077 15849 1 149.00000 418.400000
11855 11078 24504 1 149.00000 418.400000
15845 11079 16088 1 149.00000 418.400000
15845 11080 15852 1 149.00000 418.400000
15847 11081 24537 1 149.00000 418.400000
15851 11082 16047 1 149.00000 418.400000
15857 11083 15955 1 149.00000 418.400000
15865 11084 16089 1 149.00000 418.400000
15867 11085 16106 1 149.00000 418.400000
15871 11086 15912 1 149.00000 418.400000
15873 11087 16030 1 149.00000 418.400000
15878 11088 16179 1 149.00000 418.400000
15880 11089 16107 1 149.00000 418.400000
12523 11090 15880 1 149.00000 418.400000
15881 11091 16119 1 149.00000 418.400000
15978 11092 24724 1 149.00000 418.400000
15889 11093 15995 1 149.00000 418.400000
15903 11094 16131 1 149.00000 418.400000
15911 11095 16068 1 149.00000 418.400000
15916 11096 16083 1 149.00000 418.400000
16068 11097 24739 1 149.00000 418.400000
15929 11098 15959 1 149.00000 418.400000
15939 11099 16194 1 149.00000 418.400000
15940 11100 16072 1 149.00000 418.400000
15942 11101 16118 1 149.00000 418.400000
15942 11102 16001 1 149.00000 418.400000
15943 11103 15973 1 149.00000 418.400000
15944 11104 15961 1 149.00000 418.400000
15946 11105 16181 1 149.00000 418.400000
15947 11106 15982 1 149.00000 418.400000
15949 11107 15957 1 149.00000 418.400000
15956 11108 16142 1 149.00000 418.400000
15963 11109 16015 1 149.00000 418.400000
15965 11110 24573 1 149.00000 418.400000
15972 11111 16150 1 149.00000 418.400000
15977 11112 16171 1 149.00000 418.400000
15978 11113 16071 1 149.00000 418.400000
15979 11114 16067 1 149.00000 418.400000
15987 11115 16036 1 149.00000 418.400000
16155 11116 24567 1 149.00000 418.400000
15991 11117 16160 1 149.00000 418.400000
15996 11118 16176 1 149.00000 418.400000
16000 11119 16209 1 149.00000 418.400000
16001 11120 16105 1 149.00000 418.400000
16004 11121 16130 1 149.00000 418.400000
16019 11122 16101 1 149.00000 418.400000
16022 11123 16085 1 149.00000 418.400000
16035 11124 16118 1 149.00000 418.400000
16111 11125 24591 1 149.00000 418.400000
16055 11126 16099 1 149.00000 418.400000
16059 11127 16077 1 149.00000 418.400000
16061 11128 16154 1 149.00000 418.400000
16063 11129 16096 1 149.00000 418.400000
16070 11130 16089 1 149.00000 418.400000
16080 11131 16188 1 149.00000 418.400000
16091 11132 16188 1 149.00000 418.400000
16110 11133 16167 1 149.00000 418.400000
16121 11134 16196 1 149.00000 418.400000
16123 11135 16180 1 149.00000 418.400000
16152 11136 16206 1 149.00000 418.400000
16157 11137 24809 1 149.00000 418.400000
11254 11138 18381 1 149.00000 418.400000
18429 11139 23853 1 149.00000 418.400000
18441 11140 19173 1 149.00000 418.400000
13416 11141 18501 1 149.00000 418.400000
18513 11142 19857 1 149.00000 418.400000
18609 11143 22509 1 149.00000 418.400000
18621 11144 20613 1 149.00000 418.400000
18633 11145 24162 1 149.00000 418.400000
18645 11146 24108 1 149.00000 418.400000
18825 11147 21573 1 149.00000 418.400000
18945 11148 19989 1 149.00000 418.400000
19005 11149 24450 1 149.00000 418.400000
19065 11150 20565 1 149.00000 418.400000
19077 11151 22425 1 149.00000 418.400000
19101 11152 19797 1 149.00000 418.400000
19113 11153 19497 1 149.00000 418.400000
19125 11154 20649 1 149.00000 418.400000
19197 11155 24483 1 149.00000 418.400000
19245 11156 22665 1 149.00000 418.400000
19281 11157 20061 1 149.00000 418.400000
19329 11158 24111 1 149.00000 418.400000
19365 11159 24066 1 149.00000 418.400000
19413 11160 24180 1 149.00000 418.400000
15427 11161 19545 1 149.00000 418.400000
19629 11162 24543 1 149.00000 418.400000
19689 11163 24477 1 149.00000 418.400000
19701 11164 23361 1 149.00000 418.400000
19737 11165 23349 1 149.00000 418.400000
19785 11166 24090 1 149.00000 418.400000
19845 11167 23625 1 149.00000 418.400000
14613 11168 18585 1 149.00000 418.400000
12613 11169 18705 1 149.00000 418.400000
13584 11170 18777 1 149.00000 418.400000
12231 11171 18849 1 149.00000 418.400000
16151 11172 18861 1 149.00000 418.400000
11351 11173 18933 1 149.00000 418.400000
11921 11174 19053 1 149.00000 418.400000
11428 11175 19473 1 149.00000 418.400000
11723 11176 14730 1 149.00000 418.400000
12655 11177 19569 1 149.00000 418.400000
13655 11178 19605 1 149.00000 418.400000
12454 11179 19641 1 149.00000 418.400000
15467 11180 19941 1 149.00000 418.400000
13416 11181 19977 1 149.00000 418.400000
12488 11182 20037 1 149.00000 418.400000
14968 11183 20049 1 149.00000 418.400000
14717 11184 20085 1 149.00000 418.400000
11838 11185 20097 1 149.00000 418.400000
14286 11186 20157 1 149.00000 418.400000
13665 11187 20181 1 149.00000 418.400000
15519 11188 20217 1 149.00000 418.400000
15427 11189 20289 1 149.00000 418.400000
16098 11190 20301 1 149.00000 418.400000
13863 11191 20337 1 149.00000 418.400000
11254 11192 20409 1 149.00000 418.400000
14444 11193 20505 1 149.00000 418.400000
14543 11194 20517 1 149.00000 418.400000
15406 11195 20529 1 149.00000 418.400000
15663 11196 20637 1 149.00000 418.400000
12062 11197 20661 1 149.00000 418.400000
11230 11198 20709 1 149.00000 418.400000
12027 11199 12378 1 149.00000 418.400000
14529 11200 20805 1 149.00000 418.400000
13068 11201 20829 1 149.00000 418.400000
13247 11202 20889 1 149.00000 418.400000
11842 11203 20901 1 149.00000 418.400000
12378 11204 20937 1 149.00000 418.400000
14260 11205 20949 1 149.00000 418.400000
15590 11206 20961 1 149.00000 418.400000
15005 11207 20985 1 149.00000 418.400000
15669 11208 20997 1 149.00000 418.400000
14780 11209 21009 1 149.00000 418.400000
12041 11210 21033 1 149.00000 418.400000
15833 11211 21069 1 149.00000 418.400000
13263 11212 21081 1 149.00000 418.400000
11948 11213 21117 1 149.00000 418.400000
11241 11214 21141 1 149.00000 418.400000
12896 11215 21153 1 149.00000 418.400000
15954 11216 21225 1 149.00000 418.400000
13779 11217 21249 1 149.00000 418.400000
12582 11218 21261 1 149.00000 418.400000
15501 11219 21345 1 149.00000 418.400000
14578 11220 21357 1 149.00000 418.400000
14625 11221 21369 1 149.00000 418.400000
15755 11222 21381 1 149.00000 418.400000
15421 11223 21405 1 149.00000 418.400000
16133 11224 21417 1 149.00000 418.400000
11723 11225 21441 1 149.00000 418.400000
14567 11226 21477 1 149.00000 418.400000
1 11227 2 1 109.50000 418.400000
1 11227 3 1 109.50000 418.400000
1 11227 4 1 109.50000 418.400000
2 11227 3 1 109.50000 418.400000
2 11227 4 1 109.50000 418.400000
3 11227 4 1 109.50000 418.400000
7 11228 8 1 109.50000 418.400000
7 11228 9 1 109.50000 418.400000
7 11228 10 1 109.50000 418.400000
8 11228 9 1 109.50000 418.400000
8 11228 10 1 109.50000 418.400000
9 11228 10 1 109.50000 418.400000
14 11229 15 1 109.50000 418.400000
14 11229 16 1 109.50000 418.400000
14 11229 17 1 109.50000 418.400000
15 11229 16 1 109.50000 418.400000
15 11229 17 1 109.50000 418.400000
16 11229 17 1 109.50000 418.400000
19 11230 20 1 109.50000 418.400000
19 11230 21 1 109.50000 418.400000
19 11230 11198 1 109.50000 418.400000
20 11230 21 1 109.50000 418.400000
20 11230 11198 1 109.50000 418.400000
21 11230 11198 1 109.50000 418.400000
22 11231 23 1 109.50000 418.400000
22 11231 24 1 109.50000 418.400000
22 11231 25 1 109.50000 418.400000
23 11231 24 1 109.50000 418.400000
23 11231 25 1 109.50000 418.400000
24 11231 25 1 109.50000 418.400000
26 11232 27 1 109.50000 418.400000
26 11232 28 1 109.50000 418.400000
26 11232 29 1 109.50000 418.400000
27 11232 28 1 109.50000 418.400000
27 11232 29 1 109.50000 418.400000
28 11232 29 1 109.50000 418.400000
33 11233 34 1 109.50000 418.400000
33 11233 35 1 109.50000 418.400000
33 11233 36 1 109.50000 418.400000
34 11233 35 1 109.50000 418.400000
34 11233 36 1 109.50000 418.400000
35 11233 36 1 109.50000 418.400000
37 11234 38 1 109.50000 418.400000
37 11234 39 1 109.50000 418.400000
37 11234 40 1 109.50000 418.400000
38 11234 39 1 109.50000 418.400000
38 11234 40 1 109.50000 418.400000
39 11234 40 1 109.50000 418.400000
41 11235 42 1 109.50000 418.400000
41 11235 43 1 109.50000 418.400000
41 11235 44 1 109.50000 418.400000
42 11235 43 1 109.50000 418.400000
42 11235 44 1 109.50000 418.400000
43 11235 44 1 109.50000 418.400000
45 11236 46 1 109.50000 418.400000
45 11236 47 1 109.50000 418.400000
45 11236 48 1 109.50000 418.400000
46 11236 47 1 109.50000 418.400000
46 11236 48 1 109.50000 418.400000
47 11236 48 1 109.50000 418.400000
49 11237 50 1 109.50000 418.400000
49 11237 51 1 109.50000 418.400000
49 11237 52 1 109.50000 418.400000
50 11237 51 1 109.50000 418.400000
50 11237 52 1 109.50000 418.400000
51 11237 52 1 109.50000 418.400000
53 11238 54 1 109.50000 418.400000
53 11238 55 1 109.50000 418.400000
53 11238 56 1 109.50000 418.400000
54 11238 55 1 109.50000 418.400000
54 11238 56 1 109.50000 418.400000
55 11238 56 1 109.50000 418.400000
57 11239 58 1 109.50000 418.400000
57 11239 59 1 109.50000 418.400000
57 11239 60 1 109.50000 418.400000
58 11239 59 1 109.50000 418.400000
58 11239 60 1 109.50000 418.400000
59 11239 60 1 109.50000 418.400000
61 11240 62 1 109.50000 418.400000
61 11240 63 1 109.50000 418.400000
61 11240 64 1 109.50000 418.400000
62 11240 63 1 109.50000 418.400000
62 11240 64 1 109.50000 418.400000
63 11240 64 1 109.50000 418.400000
65 11241 66 1 109.50000 418.400000
65 11241 67 1 109.50000 418.400000
65 11241 11214 1 109.50000 418.400000
66 11241 67 1 109.50000 418.400000
66 11241 11214 1 109.50000 418.400000
67 11241 11214 1 109.50000 418.400000
70 11242 71 1 109.50000 418.400000
70 11242 72 1 109.50000 418.400000
70 11242 73 1 109.50000 418.400000
71 11242 72 1 109.50000 418.400000
71 11242 73 1 109.50000 418.400000
72 11242 73 1 109.50000 418.400000
74 11243 75 1 109.50000 418.400000
74 11243 76 1 109.50000 418.400000
74 11243 77 1 109.50000 418.400000
75 11243 76 1 109.50000 418.400000
75 11243 77 1 109.50000 418.400000
76 11243 77 1 109.50000 418.400000
78 11244 79 1 109.50000 418.400000
78 11244 80 1 109.50000 418.400000
78 11244 81 1 109.50000 418.400000
79 11244 80 1 109.50000 418.400000
79 11244 81 1 109.50000 418.400000
80 11244 81 1 109.50000 418.400000
82 11245 83 1 109.50000 418.400000
82 11245 84 1 109.50000 418.400000
82 11245 85 1 109.50000 418.400000
83 11245 84 1 109.50000 418.400000
83 11245 85 1 109.50000 418.400000
84 11245 85 1 109.50000 418.400000
87 11246 88 1 109.50000 418.400000
87 11246 89 1 109.50000 418.400000
87 11246 5157 1 109.50000 418.400000
88 11246 89 1 109.50000 418.400000
88 11246 5157 1 109.50000 418.400000
89 11246 5157 1 109.50000 418.400000
93 11247 94 1 109.50000 418.400000
93 11247 95 1 109.50000 418.400000
93 11247 96 1 109.50000 418.400000
94 11247 95 1 109.50000 418.400000
94 11247 96 1 109.50000 418.400000
95 11247 96 1 109.50000 418.400000
97 11248 98 1 109.50000 418.400000
97 11248 99 1 109.50000 418.400000
97 11248 100 1 109.50000 418.400000
98 11248 99 1 109.50000 418.400000
98 11248 100 1 109.50000 418.400000
99 11248 100 1 109.50000 418.400000
101 11249 102 1 109.50000 418.400000
101 11249 103 1 109.50000 418.400000
101 11249 104 1 109.50000 418.400000
102 11249 103 1 109.50000 418.400000
102 11249 104 1 109.50000 418.400000
103 11249 104 1 109.50000 418.400000
105 11250 106 1 109.50000 418.400000
105 11250 107 1 109.50000 418.400000
105 11250 108 1 109.50000 418.400000
106 11250 107 1 109.50000 418.400000
106 11250 108 1 109.50000 418.400000
107 11250 108 1 109.50000 418.400000
109 11251 110 1 109.50000 418.400000
109 11251 111 1 109.50000 418.400000
109 11251 112 1 109.50000 418.400000
110 11251 111 1 109.50000 418.400000
110 11251 112 1 109.50000 418.400000
111 11251 112 1 109.50000 418.400000
113 11252 114 1 109.50000 418.400000
113 11252 115 1 109.50000 418.400000
113 11252 116 1 109.50000 418.400000
114 11252 115 1 109.50000 418.400000
114 11252 116 1 109.50000 418.400000
115 11252 116 1 109.50000 418.400000
117 11253 118 1 109.50000 418.400000
117 11253 119 1 109.50000 418.400000
117 11253 120 1 109.50000 418.400000
118 11253 119 1 109.50000 418.400000
118 11253 120 1 109.50000 418.400000
119 11253 120 1 109.50000 418.400000
121 11254 122 1 109.50000 418.400000
121 11254 11138 1 109.50000 418.400000
121 11254 11192 1 109.50000 418.400000
122 11254 11138 1 109.50000 418.400000
122 11254 11192 1 109.50000 418.400000
11138 11254 11192 1 109.50000 418.400000
126 11255 127 1 109.50000 418.400000
126 11255 128 1 109.50000 418.400000
126 11255 129 1 109.50000 418.400000
127 11255 128 1 109.50000 418.400000
127 11255 129 1 109.50000 418.400000
128 11255 129 1 109.50000 418.400000
130 11256 131 1 109.50000 418.400000
130 11256 132 1 109.50000 418.400000
130 11256 133 1 109.50000 418.400000
131 11256 132 1 109.50000 418.400000
131 11256 133 1 109.50000 418.400000
132 11256 133 1 109.50000 418.400000
127 11257 134 1 109.50000 418.400000
127 11257 135 1 109.50000 418.400000
127 11257 136 1 109.50000 418.400000
134 11257 135 1 109.50000 418.400000
134 11257 136 1 109.50000 418.400000
135 11257 136 1 109.50000 418.400000
140 11258 141 1 109.50000 418.400000
140 11258 142 1 109.50000 418.400000
140 11258 143 1 109.50000 418.400000
141 11258 142 1 109.50000 418.400000
141 11258 143 1 109.50000 418.400000
142 11258 143 1 109.50000 418.400000
144 11259 145 1 109.50000 418.400000
144 11259 146 1 109.50000 418.400000
144 11259 147 1 109.50000 418.400000
145 11259 146 1 109.50000 418.400000
145 11259 147 1 109.50000 418.400000
146 11259 147 1 109.50000 418.400000
149 11260 150 1 109.50000 418.400000
149 11260 151 1 109.50000 418.400000
149 11260 3054 1 109.50000 418.400000
150 11260 151 1 109.50000 418.400000
150 11260 3054 1 109.50000 418.400000
151 11260 3054 1 109.50000 418.400000
152 11261 153 1 109.50000 418.400000
152 11261 154 1 109.50000 418.400000
152 11261 155 1 109.50000 418.400000
153 11261 154 1 109.50000 418.400000
153 11261 155 1 109.50000 418.400000
154 11261 155 1 109.50000 418.400000
14 11262 156 1 109.50000 418.400000
14 11262 157 1 109.50000 418.400000
14 11262 158 1 109.50000 418.400000
156 11262 157 1 109.50000 418.400000
156 11262 158 1 109.50000 418.400000
157 11262 158 1 109.50000 418.400000
160 11263 161 1 109.50000 418.400000
160 11263 162 1 109.50000 418.400000
160 11263 7368 1 109.50000 418.400000
161 11263 162 1 109.50000 418.400000
161 11263 7368 1 109.50000 418.400000
162 11263 7368 1 109.50000 418.400000
163 11264 164 1 109.50000 418.400000
163 11264 165 1 109.50000 418.400000
163 11264 166 1 109.50000 418.400000
164 11264 165 1 109.50000 418.400000
164 11264 166 1 109.50000 418.400000
165 11264 166 1 109.50000 418.400000
63 11265 167 1 109.50000 418.400000
63 11265 168 1 109.50000 418.400000
63 11265 169 1 109.50000 418.400000
167 11265 168 1 109.50000 418.400000
167 11265 169 1 109.50000 418.400000
168 11265 169 1 109.50000 418.400000
170 11266 171 1 109.50000 418.400000
170 11266 172 1 109.50000 418.400000
170 11266 173 1 109.50000 418.400000
171 11266 172 1 109.50000 418.400000
171 11266 173 1 109.50000 418.400000
172 11266 173 1 109.50000 418.400000
174 11267 175 1 109.50000 418.400000
174 11267 176 1 109.50000 418.400000
174 11267 177 1 109.50000 418.400000
175 11267 176 1 109.50000 418.400000
175 11267 177 1 109.50000 418.400000
176 11267 177 1 109.50000 418.400000
180 11268 181 1 109.50000 418.400000
180 11268 182 1 109.50000 418.400000
180 11268 183 1 109.50000 418.400000
181 11268 182 1 109.50000 418.400000
181 11268 183 1 109.50000 418.400000
182 11268 183 1 109.50000 418.400000
184 11269 185 1 109.50000 418.400000
184 11269 186 1 109.50000 418.400000
184 11269 187 1 109.50000 418.400000
185 11269 186 1 109.50000 418.400000
185 11269 187 1 109.50000 418.400000
186 11269 187 1 109.50000 418.400000
188 11270 189 1 109.50000 418.400000
188 11270 190 1 109.50000 418.400000
188 11270 191 1 109.50000 418.400000
189 11270 190 1 109.50000 418.400000
189 11270 191 1 109.50000 418.400000
190 11270 191 1 109.50000 418.400000
193 11271 194 1 109.50000 418.400000
193 11271 195 1 109.50000 418.400000
193 11271 196 1 109.50000 418.400000
194 11271 195 1 109.50000 418.400000
194 11271 196 1 109.50000 418.400000
195 11271 196 1 109.50000 418.400000
197 11272 198 1 109.50000 418.400000
197 11272 199 1 109.50000 418.400000
197 11272 200 1 109.50000 418.400000
198 11272 199 1 109.50000 418.400000
198 11272 200 1 109.50000 418.400000
199 11272 200 1 109.50000 418.400000
201 11273 202 1 109.50000 418.400000
201 11273 203 1 109.50000 418.400000
201 11273 8675 1 109.50000 418.400000
202 11273 203 1 109.50000 418.400000
202 11273 8675 1 109.50000 418.400000
203 11273 8675 1 109.50000 418.400000
206 11274 207 1 109.50000 418.400000
206 11274 208 1 109.50000 418.400000
206 11274 2442 1 109.50000 418.400000
207 11274 208 1 109.50000 418.400000
207 11274 2442 1 109.50000 418.400000
208 11274 2442 1 109.50000 418.400000
209 11275 210 1 109.50000 418.400000
209 11275 211 1 109.50000 418.400000
209 11275 212 1 109.50000 418.400000
210 11275 211 1 109.50000 418.400000
210 11275 212 1 109.50000 418.400000
211 11275 212 1 109.50000 418.400000
214 11276 215 1 109.50000 418.400000
214 11276 216 1 109.50000 418.400000
214 11276 1197 1 109.50000 418.400000
215 11276 216 1 109.50000 418.400000
215 11276 1197 1 109.50000 418.400000
216 11276 1197 1 109.50000 418.400000
217 11277 218 1 109.50000 418.400000
217 11277 219 1 109.50000 418.400000
217 11277 220 1 109.50000 418.400000
218 11277 219 1 109.50000 418.400000
218 11277 220 1 109.50000 418.400000
219 11277 220 1 109.50000 418.400000
224 11278 225 1 109.50000 418.400000
224 11278 226 1 109.50000 418.400000
224 11278 227 1 109.50000 418.400000
225 11278 226 1 109.50000 418.400000
225 11278 227 1 109.50000 418.400000
226 11278 227 1 109.50000 418.400000
228 11279 229 1 109.50000 418.400000
228 11279 230 1 109.50000 418.400000
228 11279 231 1 109.50000 418.400000
229 11279 230 1 109.50000 418.400000
229 11279 231 1 109.50000 418.400000
230 11279 231 1 109.50000 418.400000
237 11280 8525 1 109.50000 418.400000
237 11280 8526 1 109.50000 418.400000
237 11280 8527 1 109.50000 418.400000
8525 11280 8526 1 109.50000 418.400000
8525 11280 8527 1 109.50000 418.400000
8526 11280 8527 1 109.50000 418.400000
246 11281 247 1 109.50000 418.400000
246 11281 248 1 109.50000 418.400000
246 11281 249 1 109.50000 418.400000
247 11281 248 1 109.50000 418.400000
247 11281 249 1 109.50000 418.400000
248 11281 249 1 109.50000 418.400000
251 11282 252 1 109.50000 418.400000
251 11282 253 1 109.50000 418.400000
251 11282 10275 1 109.50000 418.400000
252 11282 253 1 109.50000 418.400000
252 11282 10275 1 109.50000 418.400000
253 11282 10275 1 109.50000 418.400000
256 11283 257 1 109.50000 418.400000
256 11283 258 1 109.50000 418.400000
256 11283 259 1 109.50000 418.400000
257 11283 258 1 109.50000 418.400000
257 11283 259 1 109.50000 418.400000
258 11283 259 1 109.50000 418.400000
260 11284 261 1 109.50000 418.400000
260 11284 262 1 109.50000 418.400000
260 11284 263 1 109.50000 418.400000
261 11284 262 1 109.50000 418.400000
261 11284 263 1 109.50000 418.400000
262 11284 263 1 109.50000 418.400000
264 11285 265 1 109.50000 418.400000
264 11285 266 1 109.50000 418.400000
264 11285 267 1 109.50000 418.400000
265 11285 266 1 109.50000 418.400000
265 11285 267 1 109.50000 418.400000
266 11285 267 1 109.50000 418.400000
268 11286 269 1 109.50000 418.400000
268 11286 270 1 109.50000 418.400000
268 11286 271 1 109.50000 418.400000
269 11286 270 1 109.50000 418.400000
269 11286 271 1 109.50000 418.400000
270 11286 271 1 109.50000 418.400000
275 11287 276 1 109.50000 418.400000
275 11287 277 1 109.50000 418.400000
275 11287 278 1 109.50000 418.400000
276 11287 277 1 109.50000 418.400000
276 11287 278 1 109.50000 418.400000
277 11287 278 1 109.50000 418.400000
279 11288 280 1 109.50000 418.400000
279 11288 281 1 109.50000 418.400000
279 11288 282 1 109.50000 418.400000
280 11288 281 1 109.50000 418.400000
280 11288 282 1 109.50000 418.400000
281 11288 282 1 109.50000 418.400000
286 11289 287 1 109.50000 418.400000
286 11289 288 1 109.50000 418.400000
286 11289 289 1 109.50000 418.400000
287 11289 288 1 109.50000 418.400000
287 11289 289 1 109.50000 418.400000
288 11289 289 1 109.50000 418.400000
290 11290 291 1 109.50000 418.400000
290 11290 292 1 109.50000 418.400000
290 11290 1212 1 109.50000 418.400000
291 11290 292 1 109.50000 418.400000
291 11290 1212 1 109.50000 418.400000
292 11290 1212 1 109.50000 418.400000
294 11291 295 1 109.50000 418.400000
294 11291 296 1 109.50000 418.400000
294 11291 9847 1 109.50000 418.400000
295 11291 296 1 109.50000 418.400000
295 11291 9847 1 109.50000 418.400000
296 11291 9847 1 109.50000 418.400000
298 11292 299 1 109.50000 418.400000
298 11292 300 1 109.50000 418.400000
298 11292 301 1 109.50000 418.400000
299 11292 300 1 109.50000 418.400000
299 11292 301 1 109.50000 418.400000
300 11292 301 1 109.50000 418.400000
302 11293 303 1 109.50000 418.400000
302 11293 304 1 109.50000 418.400000
302 11293 305 1 109.50000 418.400000
303 11293 304 1 109.50000 418.400000
303 11293 305 1 109.50000 418.400000
304 11293 305 1 109.50000 418.400000
306 11294 307 1 109.50000 418.400000
306 11294 308 1 109.50000 418.400000
306 11294 309 1 109.50000 418.400000
307 11294 308 1 109.50000 418.400000
307 11294 309 1 109.50000 418.400000
308 11294 309 1 109.50000 418.400000
310 11295 311 1 109.50000 418.400000
310 11295 312 1 109.50000 418.400000
310 11295 313 1 109.50000 418.400000
311 11295 312 1 109.50000 418.400000
311 11295 313 1 109.50000 418.400000
312 11295 313 1 109.50000 418.400000
316 11296 317 1 109.50000 418.400000
316 11296 318 1 109.50000 418.400000
316 11296 319 1 109.50000 418.400000
317 11296 318 1 109.50000 418.400000
317 11296 319 1 109.50000 418.400000
318 11296 319 1 109.50000 418.400000
289 11297 321 1 109.50000 418.400000
289 11297 322 1 109.50000 418.400000
289 11297 323 1 109.50000 418.400000
321 11297 322 1 109.50000 418.400000
321 11297 323 1 109.50000 418.400000
322 11297 323 1 109.50000 418.400000
324 11298 325 1 109.50000 418.400000
324 11298 326 1 109.50000 418.400000
324 11298 327 1 109.50000 418.400000
325 11298 326 1 109.50000 418.400000
325 11298 327 1 109.50000 418.400000
326 11298 327 1 109.50000 418.400000
328 11299 329 1 109.50000 418.400000
328 11299 330 1 109.50000 418.400000
328 11299 331 1 109.50000 418.400000
329 11299 330 1 109.50000 418.400000
329 11299 331 1 109.50000 418.400000
330 11299 331 1 109.50000 418.400000
332 11300 333 1 109.50000 418.400000
332 11300 334 1 109.50000 418.400000
332 11300 335 1 109.50000 418.400000
333 11300 334 1 109.50000 418.400000
333 11300 335 1 109.50000 418.400000
334 11300 335 1 109.50000 418.400000
338 11301 770 1 109.50000 418.400000
338 11301 5300 1 109.50000 418.400000
338 11301 5799 1 109.50000 418.400000
770 11301 5300 1 109.50000 418.400000
770 11301 5799 1 109.50000 418.400000
5300 11301 5799 1 109.50000 418.400000
340 11302 341 1 109.50000 418.400000
340 11302 342 1 109.50000 418.400000
340 11302 343 1 109.50000 418.400000
341 11302 342 1 109.50000 418.400000
341 11302 343 1 109.50000 418.400000
342 11302 343 1 109.50000 418.400000
344 11303 345 1 109.50000 418.400000
344 11303 346 1 109.50000 418.400000
344 11303 347 1 109.50000 418.400000
345 11303 346 1 109.50000 418.400000
345 11303 347 1 109.50000 418.400000
346 11303 347 1 109.50000 418.400000
352 11304 353 1 109.50000 418.400000
352 11304 354 1 109.50000 418.400000
352 11304 355 1 109.50000 418.400000
353 11304 354 1 109.50000 418.400000
353 11304 355 1 109.50000 418.400000
354 11304 355 1 109.50000 418.400000
356 11305 357 1 109.50000 418.400000
356 11305 358 1 109.50000 418.400000
356 11305 359 1 109.50000 418.400000
357 11305 358 1 109.50000 418.400000
357 11305 359 1 109.50000 418.400000
358 11305 359 1 109.50000 418.400000
360 11306 361 1 109.50000 418.400000
360 11306 362 1 109.50000 418.400000
360 11306 363 1 109.50000 418.400000
361 11306 362 1 109.50000 418.400000
361 11306 363 1 109.50000 418.400000
362 11306 363 1 109.50000 418.400000
364 11307 365 1 109.50000 418.400000
364 11307 366 1 109.50000 418.400000
364 11307 367 1 109.50000 418.400000
365 11307 366 1 109.50000 418.400000
365 11307 367 1 109.50000 418.400000
366 11307 367 1 109.50000 418.400000
372 11308 374 1 109.50000 418.400000
372 11308 2432 1 109.50000 418.400000
372 11308 6266 1 109.50000 418.400000
374 11308 2432 1 109.50000 418.400000
374 11308 6266 1 109.50000 418.400000
2432 11308 6266 1 109.50000 418.400000
377 11309 378 1 109.50000 418.400000
377 11309 1946 1 109.50000 418.400000
377 11309 1948 1 109.50000 418.400000
378 11309 1946 1 109.50000 418.400000
378 11309 1948 1 109.50000 418.400000
1946 11309 1948 1 109.50000 418.400000
379 11310 380 1 109.50000 418.400000
379 11310 381 1 109.50000 418.400000
379 11310 382 1 109.50000 418.400000
380 11310 381 1 109.50000 418.400000
380 11310 382 1 109.50000 418.400000
381 11310 382 1 109.50000 418.400000
383 11311 384 1 109.50000 418.400000
383 11311 385 1 109.50000 418.400000
383 11311 386 1 109.50000 418.400000
384 11311 385 1 109.50000 418.400000
384 11311 386 1 109.50000 418.400000
385 11311 386 1 109.50000 418.400000
387 11312 388 1 109.50000 418.400000
387 11312 389 1 109.50000 418.400000
387 11312 390 1 109.50000 418.400000
388 11312 389 1 109.50000 418.400000
388 11312 390 1 109.50000 418.400000
389 11312 390 1 109.50000 418.400000
391 11313 392 1 109.50000 418.400000
391 11313 393 1 109.50000 418.400000
391 11313 394 1 109.50000 418.400000
392 11313 393 1 109.50000 418.400000
392 11313 394 1 109.50000 418.400000
393 11313 394 1 109.50000 418.400000
397 11314 399 1 109.50000 418.400000
397 11314 400 1 109.50000 418.400000
397 11314 4444 1 109.50000 418.400000
399 11314 400 1 109.50000 418.400000
399 11314 4444 1 109.50000 418.400000
400 11314 4444 1 109.50000 418.400000
401 11315 402 1 109.50000 418.400000
401 11315 403 1 109.50000 418.400000
401 11315 404 1 109.50000 418.400000
402 11315 403 1 109.50000 418.400000
402 11315 404 1 109.50000 418.400000
403 11315 404 1 109.50000 418.400000
405 11316 406 1 109.50000 418.400000
405 11316 408 1 109.50000 418.400000
405 11316 8729 1 109.50000 418.400000
406 11316 408 1 109.50000 418.400000
406 11316 8729 1 109.50000 418.400000
408 11316 8729 1 109.50000 418.400000
409 11317 410 1 109.50000 418.400000
409 11317 411 1 109.50000 418.400000
409 11317 412 1 109.50000 418.400000
410 11317 411 1 109.50000 418.400000
410 11317 412 1 109.50000 418.400000
411 11317 412 1 109.50000 418.400000
413 11318 414 1 109.50000 418.400000
413 11318 415 1 109.50000 418.400000
413 11318 416 1 109.50000 418.400000
414 11318 415 1 109.50000 418.400000
414 11318 416 1 109.50000 418.400000
415 11318 416 1 109.50000 418.400000
420 11319 421 1 109.50000 418.400000
420 11319 422 1 109.50000 418.400000
420 11319 423 1 109.50000 418.400000
421 11319 422 1 109.50000 418.400000
421 11319 423 1 109.50000 418.400000
422 11319 423 1 109.50000 418.400000
271 11320 424 1 109.50000 418.400000
271 11320 425 1 109.50000 418.400000
271 11320 426 1 109.50000 418.400000
424 11320 425 1 109.50000 418.400000
424 11320 426 1 109.50000 418.400000
425 11320 426 1 109.50000 418.400000
427 11321 428 1 109.50000 418.400000
427 11321 429 1 109.50000 418.400000
427 11321 430 1 109.50000 418.400000
428 11321 429 1 109.50000 418.400000
428 11321 430 1 109.50000 418.400000
429 11321 430 1 109.50000 418.400000
431 11322 432 1 109.50000 418.400000
431 11322 433 1 109.50000 418.400000
431 11322 434 1 109.50000 418.400000
432 11322 433 1 109.50000 418.400000
432 11322 434 1 109.50000 418.400000
433 11322 434 1 109.50000 418.400000
436 11323 437 1 109.50000 418.400000
436 11323 438 1 109.50000 418.400000
436 11323 2817 1 109.50000 418.400000
437 11323 438 1 109.50000 418.400000
437 11323 2817 1 109.50000 418.400000
438 11323 2817 1 109.50000 418.400000
441 11324 442 1 109.50000 418.400000
441 11324 443 1 109.50000 418.400000
441 11324 444 1 109.50000 418.400000
442 11324 443 1 109.50000 418.400000
442 11324 444 1 109.50000 418.400000
443 11324 444 1 109.50000 418.400000
445 11325 446 1 109.50000 418.400000
445 11325 447 1 109.50000 418.400000
445 11325 448 1 109.50000 418.400000
446 11325 447 1 109.50000 418.400000
446 11325 448 1 109.50000 418.400000
447 11325 448 1 109.50000 418.400000
451 11326 452 1 109.50000 418.400000
451 11326 453 1 109.50000 418.400000
451 11326 454 1 109.50000 418.400000
452 11326 453 1 109.50000 418.400000
452 11326 454 1 109.50000 418.400000
453 11326 454 1 109.50000 418.400000
455 11327 456 1 109.50000 418.400000
455 11327 457 1 109.50000 418.400000
455 11327 458 1 109.50000 418.400000
456 11327 457 1 109.50000 418.400000
456 11327 458 1 109.50000 418.400000
457 11327 458 1 109.50000 418.400000
461 11328 462 1 109.50000 418.400000
461 11328 463 1 109.50000 418.400000
461 11328 464 1 109.50000 418.400000
462 11328 463 1 109.50000 418.400000
462 11328 464 1 109.50000 418.400000
463 11328 464 1 109.50000 418.400000
465 11329 466 1 109.50000 418.400000
465 11329 467 1 109.50000 418.400000
465 11329 468 1 109.50000 418.400000
466 11329 467 1 109.50000 418.400000
466 11329 468 1 109.50000 418.400000
467 11329 468 1 109.50000 418.400000
469 11330 470 1 109.50000 418.400000
469 11330 471 1 109.50000 418.400000
469 11330 472 1 109.50000 418.400000
470 11330 471 1 109.50000 418.400000
470 11330 472 1 109.50000 418.400000
471 11330 472 1 109.50000 418.400000
475 11331 476 1 109.50000 418.400000
475 11331 477 1 109.50000 418.400000
475 11331 478 1 109.50000 418.400000
476 11331 477 1 109.50000 418.400000
476 11331 478 1 109.50000 418.400000
477 11331 478 1 109.50000 418.400000
479 11332 482 1 109.50000 418.400000
479 11332 4167 1 109.50000 418.400000
479 11332 4168 1 109.50000 418.400000
482 11332 4167 1 109.50000 418.400000
482 11332 4168 1 109.50000 418.400000
4167 11332 4168 1 109.50000 418.400000
483 11333 484 1 109.50000 418.400000
483 11333 485 1 109.50000 418.400000
483 11333 486 1 109.50000 418.400000
484 11333 485 1 109.50000 418.400000
484 11333 486 1 109.50000 418.400000
485 11333 486 1 109.50000 418.400000
487 11334 488 1 109.50000 418.400000
487 11334 489 1 109.50000 418.400000
487 11334 490 1 109.50000 418.400000
488 11334 489 1 109.50000 418.400000
488 11334 490 1 109.50000 418.400000
489 11334 490 1 109.50000 418.400000
491 11335 492 1 109.50000 418.400000
491 11335 493 1 109.50000 418.400000
491 11335 494 1 109.50000 418.400000
492 11335 493 1 109.50000 418.400000
492 11335 494 1 109.50000 418.400000
493 11335 494 1 109.50000 418.400000
496 11336 497 1 109.50000 418.400000
496 11336 498 1 109.50000 418.400000
496 11336 7669 1 109.50000 418.400000
497 11336 498 1 109.50000 418.400000
497 11336 7669 1 109.50000 418.400000
498 11336 7669 1 109.50000 418.400000
500 11337 501 1 109.50000 418.400000
500 11337 502 1 109.50000 418.400000
500 11337 503 1 109.50000 418.400000
501 11337 502 1 109.50000 418.400000
501 11337 503 1 109.50000 418.400000
502 11337 503 1 109.50000 418.400000
504 11338 505 1 109.50000 418.400000
504 11338 506 1 109.50000 418.400000
504 11338 507 1 109.50000 418.400000
505 11338 506 1 109.50000 418.400000
505 11338 507 1 109.50000 418.400000
506 11338 507 1 109.50000 418.400000
508 11339 509 1 109.50000 418.400000
508 11339 510 1 109.50000 418.400000
508 11339 511 1 109.50000 418.400000
509 11339 510 1 109.50000 418.400000
509 11339 511 1 109.50000 418.400000
510 11339 511 1 109.50000 418.400000
123 11340 512 1 109.50000 418.400000
123 11340 513 1 109.50000 418.400000
123 11340 514 1 109.50000 418.400000
512 11340 513 1 109.50000 418.400000
512 11340 514 1 109.50000 418.400000
513 11340 514 1 109.50000 418.400000
521 11341 522 1 109.50000 418.400000
521 11341 524 1 109.50000 418.400000
521 11341 4624 1 109.50000 418.400000
522 11341 524 1 109.50000 418.400000
522 11341 4624 1 109.50000 418.400000
524 11341 4624 1 109.50000 418.400000
525 11342 526 1 109.50000 418.400000
525 11342 527 1 109.50000 418.400000
525 11342 528 1 109.50000 418.400000
526 11342 527 1 109.50000 418.400000
526 11342 528 1 109.50000 418.400000
527 11342 528 1 109.50000 418.400000
529 11343 530 1 109.50000 418.400000
529 11343 531 1 109.50000 418.400000
529 11343 532 1 109.50000 418.400000
530 11343 531 1 109.50000 418.400000
530 11343 532 1 109.50000 418.400000
531 11343 532 1 109.50000 418.400000
503 11344 533 1 109.50000 418.400000
503 11344 534 1 109.50000 418.400000
503 11344 535 1 109.50000 418.400000
533 11344 534 1 109.50000 418.400000
533 11344 535 1 109.50000 418.400000
534 11344 535 1 109.50000 418.400000
5 11345 536 1 109.50000 418.400000
5 11345 537 1 109.50000 418.400000
5 11345 538 1 109.50000 418.400000
536 11345 537 1 109.50000 418.400000
536 11345 538 1 109.50000 418.400000
537 11345 538 1 109.50000 418.400000
539 11346 540 1 109.50000 418.400000
539 11346 541 1 109.50000 418.400000
539 11346 542 1 109.50000 418.400000
540 11346 541 1 109.50000 418.400000
540 11346 542 1 109.50000 418.400000
541 11346 542 1 109.50000 418.400000
545 11347 1597 1 109.50000 418.400000
545 11347 4639 1 109.50000 418.400000
545 11347 4640 1 109.50000 418.400000
1597 11347 4639 1 109.50000 418.400000
1597 11347 4640 1 109.50000 418.400000
4639 11347 4640 1 109.50000 418.400000
249 11348 426 1 109.50000 418.400000
249 11348 546 1 109.50000 418.400000
249 11348 547 1 109.50000 418.400000
426 11348 546 1 109.50000 418.400000
426 11348 547 1 109.50000 418.400000
546 11348 547 1 109.50000 418.400000
548 11349 549 1 109.50000 418.400000
548 11349 550 1 109.50000 418.400000
548 11349 551 1 109.50000 418.400000
549 11349 550 1 109.50000 418.400000
549 11349 551 1 109.50000 418.400000
550 11349 551 1 109.50000 418.400000
552 11350 553 1 109.50000 418.400000
552 11350 554 1 109.50000 418.400000
552 11350 1131 1 109.50000 418.400000
553 11350 554 1 109.50000 418.400000
553 11350 1131 1 109.50000 418.400000
554 11350 1131 1 109.50000 418.400000
559 11351 560 1 109.50000 418.400000
559 11351 561 1 109.50000 418.400000
559 11351 11173 1 109.50000 418.400000
560 11351 561 1 109.50000 418.400000
560 11351 11173 1 109.50000 418.400000
561 11351 11173 1 109.50000 418.400000
562 11352 563 1 109.50000 418.400000
562 11352 564 1 109.50000 418.400000
562 11352 565 1 109.50000 418.400000
563 11352 564 1 109.50000 418.400000
563 11352 565 1 109.50000 418.400000
564 11352 565 1 109.50000 418.400000
566 11353 567 1 109.50000 418.400000
566 11353 568 1 109.50000 418.400000
566 11353 569 1 109.50000 418.400000
567 11353 568 1 109.50000 418.400000
567 11353 569 1 109.50000 418.400000
568 11353 569 1 109.50000 418.400000
570 11354 571 1 109.50000 418.400000
570 11354 572 1 109.50000 418.400000
570 11354 573 1 109.50000 418.400000
571 11354 572 1 109.50000 418.400000
571 11354 573 1 109.50000 418.400000
572 11354 573 1 109.50000 418.400000
574 11355 575 1 109.50000 418.400000
574 11355 576 1 109.50000 418.400000
574 11355 577 1 109.50000 418.400000
575 11355 576 1 109.50000 418.400000
575 11355 577 1 109.50000 418.400000
576 11355 577 1 109.50000 418.400000
347 11356 580 1 109.50000 418.400000
347 11356 581 1 109.50000 418.400000
347 11356 582 1 109.50000 418.400000
580 11356 581 1 109.50000 418.400000
580 11356 582 1 109.50000 418.400000
581 11356 582 1 109.50000 418.400000
585 11357 586 1 109.50000 418.400000
585 11357 587 1 109.50000 418.400000
585 11357 588 1 109.50000 418.400000
586 11357 587 1 109.50000 418.400000
586 11357 588 1 109.50000 418.400000
587 11357 588 1 109.50000 418.400000
589 11358 590 1 109.50000 418.400000
589 11358 591 1 109.50000 418.400000
589 11358 592 1 109.50000 418.400000
590 11358 591 1 109.50000 418.400000
590 11358 592 1 109.50000 418.400000
591 11358 592 1 109.50000 418.400000
593 11359 594 1 109.50000 418.400000
593 11359 595 1 109.50000 418.400000
593 11359 596 1 109.50000 418.400000
594 11359 595 1 109.50000 418.400000
594 11359 596 1 109.50000 418.400000
595 11359 596 1 109.50000 418.400000
597 11360 598 1 109.50000 418.400000
597 11360 599 1 109.50000 418.400000
597 11360 600 1 109.50000 418.400000
598 11360 599 1 109.50000 418.400000
598 11360 600 1 109.50000 418.400000
599 11360 600 1 109.50000 418.400000
604 11361 605 1 109.50000 418.400000
604 11361 606 1 109.50000 418.400000
604 11361 607 1 109.50000 418.400000
605 11361 606 1 109.50000 418.400000
605 11361 607 1 109.50000 418.400000
606 11361 607 1 109.50000 418.400000
606 11362 608 1 109.50000 418.400000
606 11362 609 1 109.50000 418.400000
606 11362 610 1 109.50000 418.400000
608 11362 609 1 109.50000 418.400000
608 11362 610 1 109.50000 418.400000
609 11362 610 1 109.50000 418.400000
611 11363 612 1 109.50000 418.400000
611 11363 613 1 109.50000 418.400000
611 11363 614 1 109.50000 418.400000
612 11363 613 1 109.50000 418.400000
612 11363 614 1 109.50000 418.400000
613 11363 614 1 109.50000 418.400000
615 11364 616 1 109.50000 418.400000
615 11364 617 1 109.50000 418.400000
615 11364 618 1 109.50000 418.400000
616 11364 617 1 109.50000 418.400000
616 11364 618 1 109.50000 418.400000
617 11364 618 1 109.50000 418.400000
622 11365 623 1 109.50000 418.400000
622 11365 624 1 109.50000 418.400000
622 11365 625 1 109.50000 418.400000
623 11365 624 1 109.50000 418.400000
623 11365 625 1 109.50000 418.400000
624 11365 625 1 109.50000 418.400000
375 11366 626 1 109.50000 418.400000
375 11366 627 1 109.50000 418.400000
375 11366 628 1 109.50000 418.400000
626 11366 627 1 109.50000 418.400000
626 11366 628 1 109.50000 418.400000
627 11366 628 1 109.50000 418.400000
292 11367 629 1 109.50000 418.400000
292 11367 630 1 109.50000 418.400000
292 11367 631 1 109.50000 418.400000
629 11367 630 1 109.50000 418.400000
629 11367 631 1 109.50000 418.400000
630 11367 631 1 109.50000 418.400000
632 11368 633 1 109.50000 418.400000
632 11368 634 1 109.50000 418.400000
632 11368 635 1 109.50000 418.400000
633 11368 634 1 109.50000 418.400000
633 11368 635 1 109.50000 418.400000
634 11368 635 1 109.50000 418.400000
636 11369 637 1 109.50000 418.400000
636 11369 638 1 109.50000 418.400000
636 11369 639 1 109.50000 418.400000
637 11369 638 1 109.50000 418.400000
637 11369 639 1 109.50000 418.400000
638 11369 639 1 109.50000 418.400000
640 11370 641 1 109.50000 418.400000
640 11370 642 1 109.50000 418.400000
640 11370 643 1 109.50000 418.400000
641 11370 642 1 109.50000 418.400000
641 11370 643 1 109.50000 418.400000
642 11370 643 1 109.50000 418.400000
445 11371 644 1 109.50000 418.400000
445 11371 645 1 109.50000 418.400000
445 11371 646 1 109.50000 418.400000
644 11371 645 1 109.50000 418.400000
644 11371 646 1 109.50000 418.400000
645 11371 646 1 109.50000 418.400000
647 11372 648 1 109.50000 418.400000
647 11372 649 1 109.50000 418.400000
647 11372 650 1 109.50000 418.400000
648 11372 649 1 109.50000 418.400000
648 11372 650 1 109.50000 418.400000
649 11372 650 1 109.50000 418.400000
651 11373 652 1 109.50000 418.400000
651 11373 653 1 109.50000 418.400000
651 11373 654 1 109.50000 418.400000
652 11373 653 1 109.50000 418.400000
652 11373 654 1 109.50000 418.400000
653 11373 654 1 109.50000 418.400000
388 11374 629 1 109.50000 418.400000
388 11374 655 1 109.50000 418.400000
388 11374 656 1 109.50000 418.400000
629 11374 655 1 109.50000 418.400000
629 11374 656 1 109.50000 418.400000
655 11374 656 1 109.50000 418.400000
657 11375 658 1 109.50000 418.400000
657 11375 659 1 109.50000 418.400000
657 11375 4295 1 109.50000 418.400000
658 11375 659 1 109.50000 418.400000
658 11375 4295 1 109.50000 418.400000
659 11375 4295 1 109.50000 418.400000
661 11376 662 1 109.50000 418.400000
661 11376 664 1 109.50000 418.400000
661 11376 6555 1 109.50000 418.400000
662 11376 664 1 109.50000 418.400000
662 11376 6555 1 109.50000 418.400000
664 11376 6555 1 109.50000 418.400000
665 11377 667 1 109.50000 418.400000
665 11377 668 1 109.50000 418.400000
665 11377 3695 1 109.50000 418.400000
667 11377 668 1 109.50000 418.400000
667 11377 3695 1 109.50000 418.400000
668 11377 3695 1 109.50000 418.400000
671 11378 672 1 109.50000 418.400000
671 11378 674 1 109.50000 418.400000
671 11378 8622 1 109.50000 418.400000
672 11378 674 1 109.50000 418.400000
672 11378 8622 1 109.50000 418.400000
674 11378 8622 1 109.50000 418.400000
678 11379 679 1 109.50000 418.400000
678 11379 680 1 109.50000 418.400000
678 11379 850 1 109.50000 418.400000
679 11379 680 1 109.50000 418.400000
679 11379 850 1 109.50000 418.400000
680 11379 850 1 109.50000 418.400000
682 11380 684 1 109.50000 418.400000
682 11380 685 1 109.50000 418.400000
682 11380 760 1 109.50000 418.400000
684 11380 685 1 109.50000 418.400000
684 11380 760 1 109.50000 418.400000
685 11380 760 1 109.50000 418.400000
686 11381 687 1 109.50000 418.400000
686 11381 688 1 109.50000 418.400000
686 11381 689 1 109.50000 418.400000
687 11381 688 1 109.50000 418.400000
687 11381 689 1 109.50000 418.400000
688 11381 689 1 109.50000 418.400000
401 11382 690 1 109.50000 418.400000
401 11382 692 1 109.50000 418.400000
401 11382 1749 1 109.50000 418.400000
690 11382 692 1 109.50000 418.400000
690 11382 1749 1 109.50000 418.400000
692 11382 1749 1 109.50000 418.400000
693 11383 694 1 109.50000 418.400000
693 11383 695 1 109.50000 418.400000
693 11383 696 1 109.50000 418.400000
694 11383 695 1 109.50000 418.400000
694 11383 696 1 109.50000 418.400000
695 11383 696 1 109.50000 418.400000
697 11384 698 1 109.50000 418.400000
697 11384 699 1 109.50000 418.400000
697 11384 700 1 109.50000 418.400000
698 11384 699 1 109.50000 418.400000
698 11384 700 1 109.50000 418.400000
699 11384 700 1 109.50000 418.400000
176 11385 701 1 109.50000 418.400000
176 11385 702 1 109.50000 418.400000
176 11385 703 1 109.50000 418.400000
701 11385 702 1 109.50000 418.400000
701 11385 703 1 109.50000 418.400000
702 11385 703 1 109.50000 418.400000
704 11386 705 1 109.50000 418.400000
704 11386 706 1 109.50000 418.400000
704 11386 707 1 109.50000 418.400000
705 11386 706 1 109.50000 418.400000
705 11386 707 1 109.50000 418.400000
706 11386 707 1 109.50000 418.400000
708 11387 709 1 109.50000 418.400000
708 11387 710 1 109.50000 418.400000
708 11387 711 1 109.50000 418.400000
709 11387 710 1 109.50000 418.400000
709 11387 711 1 109.50000 418.400000
710 11387 711 1 109.50000 418.400000
712 11388 713 1 109.50000 418.400000
712 11388 714 1 109.50000 418.400000
712 11388 7002 1 109.50000 418.400000
713 11388 714 1 109.50000 418.400000
713 11388 7002 1 109.50000 418.400000
714 11388 7002 1 109.50000 418.400000
717 11389 718 1 109.50000 418.400000
717 11389 3464 1 109.50000 418.400000
717 11389 7773 1 109.50000 418.400000
718 11389 3464 1 109.50000 418.400000
718 11389 7773 1 109.50000 418.400000
3464 11389 7773 1 109.50000 418.400000
725 11390 726 1 109.50000 418.400000
725 11390 727 1 109.50000 418.400000
725 11390 728 1 109.50000 418.400000
726 11390 727 1 109.50000 418.400000
726 11390 728 1 109.50000 418.400000
727 11390 728 1 109.50000 418.400000
729 11391 730 1 109.50000 418.400000
729 11391 731 1 109.50000 418.400000
729 11391 732 1 109.50000 418.400000
730 11391 731 1 109.50000 418.400000
730 11391 732 1 109.50000 418.400000
731 11391 732 1 109.50000 418.400000
733 11392 734 1 109.50000 418.400000
733 11392 735 1 109.50000 418.400000
733 11392 736 1 109.50000 418.400000
734 11392 735 1 109.50000 418.400000
734 11392 736 1 109.50000 418.400000
735 11392 736 1 109.50000 418.400000
737 11393 738 1 109.50000 418.400000
737 11393 739 1 109.50000 418.400000
737 11393 740 1 109.50000 418.400000
738 11393 739 1 109.50000 418.400000
738 11393 740 1 109.50000 418.400000
739 11393 740 1 109.50000 418.400000
741 11394 742 1 109.50000 418.400000
741 11394 743 1 109.50000 418.400000
741 11394 744 1 109.50000 418.400000
742 11394 743 1 109.50000 418.400000
742 11394 744 1 109.50000 418.400000
743 11394 744 1 109.50000 418.400000
745 11395 746 1 109.50000 418.400000
745 11395 747 1 109.50000 418.400000
745 11395 748 1 109.50000 418.400000
746 11395 747 1 109.50000 418.400000
746 11395 748 1 109.50000 418.400000
747 11395 748 1 109.50000 418.400000
749 11396 750 1 109.50000 418.400000
749 11396 751 1 109.50000 418.400000
749 11396 752 1 109.50000 418.400000
750 11396 751 1 109.50000 418.400000
750 11396 752 1 109.50000 418.400000
751 11396 752 1 109.50000 418.400000
753 11397 754 1 109.50000 418.400000
753 11397 755 1 109.50000 418.400000
753 11397 756 1 109.50000 418.400000
754 11397 755 1 109.50000 418.400000
754 11397 756 1 109.50000 418.400000
755 11397 756 1 109.50000 418.400000
757 11398 758 1 109.50000 418.400000
757 11398 759 1 109.50000 418.400000
757 11398 760 1 109.50000 418.400000
758 11398 759 1 109.50000 418.400000
758 11398 760 1 109.50000 418.400000
759 11398 760 1 109.50000 418.400000
761 11399 762 1 109.50000 418.400000
761 11399 763 1 109.50000 418.400000
761 11399 764 1 109.50000 418.400000
762 11399 763 1 109.50000 418.400000
762 11399 764 1 109.50000 418.400000
763 11399 764 1 109.50000 418.400000
765 11400 766 1 109.50000 418.400000
765 11400 767 1 109.50000 418.400000
765 11400 768 1 109.50000 418.400000
766 11400 767 1 109.50000 418.400000
766 11400 768 1 109.50000 418.400000
767 11400 768 1 109.50000 418.400000
769 11401 770 1 109.50000 418.400000
769 11401 771 1 109.50000 418.400000
769 11401 772 1 109.50000 418.400000
770 11401 771 1 109.50000 418.400000
770 11401 772 1 109.50000 418.400000
771 11401 772 1 109.50000 418.400000
65 11402 773 1 109.50000 418.400000
65 11402 774 1 109.50000 418.400000
65 11402 775 1 109.50000 418.400000
773 11402 774 1 109.50000 418.400000
773 11402 775 1 109.50000 418.400000
774 11402 775 1 109.50000 418.400000
362 11403 776 1 109.50000 418.400000
362 11403 777 1 109.50000 418.400000
362 11403 2574 1 109.50000 418.400000
776 11403 777 1 109.50000 418.400000
776 11403 2574 1 109.50000 418.400000
777 11403 2574 1 109.50000 418.400000
779 11404 780 1 109.50000 418.400000
779 11404 781 1 109.50000 418.400000
779 11404 782 1 109.50000 418.400000
780 11404 781 1 109.50000 418.400000
780 11404 782 1 109.50000 418.400000
781 11404 782 1 109.50000 418.400000
786 11405 787 1 109.50000 418.400000
786 11405 788 1 109.50000 418.400000
786 11405 789 1 109.50000 418.400000
787 11405 788 1 109.50000 418.400000
787 11405 789 1 109.50000 418.400000
788 11405 789 1 109.50000 418.400000
599 11406 794 1 109.50000 418.400000
599 11406 795 1 109.50000 418.400000
599 11406 796 1 109.50000 418.400000
794 11406 795 1 109.50000 418.400000
794 11406 796 1 109.50000 418.400000
795 11406 796 1 109.50000 418.400000
802 11407 803 1 109.50000 418.400000
802 11407 804 1 109.50000 418.400000
802 11407 805 1 109.50000 418.400000
803 11407 804 1 109.50000 418.400000
803 11407 805 1 109.50000 418.400000
804 11407 805 1 109.50000 418.400000
806 11408 807 1 109.50000 418.400000
806 11408 808 1 109.50000 418.400000
806 11408 2074 1 109.50000 418.400000
807 11408 808 1 109.50000 418.400000
807 11408 2074 1 109.50000 418.400000
808 11408 2074 1 109.50000 418.400000
813 11409 843 1 109.50000 418.400000
813 11409 5920 1 109.50000 418.400000
813 11409 7740 1 109.50000 418.400000
843 11409 5920 1 109.50000 418.400000
843 11409 7740 1 109.50000 418.400000
5920 11409 7740 1 109.50000 418.400000
814 11410 815 1 109.50000 418.400000
814 11410 816 1 109.50000 418.400000
814 11410 817 1 109.50000 418.400000
815 11410 816 1 109.50000 418.400000
815 11410 817 1 109.50000 418.400000
816 11410 817 1 109.50000 418.400000
818 11411 819 1 109.50000 418.400000
818 11411 820 1 109.50000 418.400000
818 11411 821 1 109.50000 418.400000
819 11411 820 1 109.50000 418.400000
819 11411 821 1 109.50000 418.400000
820 11411 821 1 109.50000 418.400000
404 11412 822 1 109.50000 418.400000
404 11412 823 1 109.50000 418.400000
404 11412 824 1 109.50000 418.400000
822 11412 823 1 109.50000 418.400000
822 11412 824 1 109.50000 418.400000
823 11412 824 1 109.50000 418.400000
825 11413 827 1 109.50000 418.400000
825 11413 828 1 109.50000 418.400000
825 11413 6852 1 109.50000 418.400000
827 11413 828 1 109.50000 418.400000
827 11413 6852 1 109.50000 418.400000
828 11413 6852 1 109.50000 418.400000
829 11414 830 1 109.50000 418.400000
829 11414 831 1 109.50000 418.400000
829 11414 832 1 109.50000 418.400000
830 11414 831 1 109.50000 418.400000
830 11414 832 1 109.50000 418.400000
831 11414 832 1 109.50000 418.400000
833 11415 834 1 109.50000 418.400000
833 11415 835 1 109.50000 418.400000
833 11415 836 1 109.50000 418.400000
834 11415 835 1 109.50000 418.400000
834 11415 836 1 109.50000 418.400000
835 11415 836 1 109.50000 418.400000
841 11416 842 1 109.50000 418.400000
841 11416 843 1 109.50000 418.400000
841 11416 844 1 109.50000 418.400000
842 11416 843 1 109.50000 418.400000
842 11416 844 1 109.50000 418.400000
843 11416 844 1 109.50000 418.400000
430 11417 846 1 109.50000 418.400000
430 11417 847 1 109.50000 418.400000
430 11417 848 1 109.50000 418.400000
846 11417 847 1 109.50000 418.400000
846 11417 848 1 109.50000 418.400000
847 11417 848 1 109.50000 418.400000
678 11418 681 1 109.50000 418.400000
678 11418 849 1 109.50000 418.400000
678 11418 851 1 109.50000 418.400000
681 11418 849 1 109.50000 418.400000
681 11418 851 1 109.50000 418.400000
849 11418 851 1 109.50000 418.400000
852 11419 853 1 109.50000 418.400000
852 11419 854 1 109.50000 418.400000
852 11419 855 1 109.50000 418.400000
853 11419 854 1 109.50000 418.400000
853 11419 855 1 109.50000 418.400000
854 11419 855 1 109.50000 418.400000
856 11420 857 1 109.50000 418.400000
856 11420 858 1 109.50000 418.400000
856 11420 859 1 109.50000 418.400000
857 11420 858 1 109.50000 418.400000
857 11420 859 1 109.50000 418.400000
858 11420 859 1 109.50000 418.400000
860 11421 861 1 109.50000 418.400000
860 11421 862 1 109.50000 418.400000
860 11421 863 1 109.50000 418.400000
861 11421 862 1 109.50000 418.400000
861 11421 863 1 109.50000 418.400000
862 11421 863 1 109.50000 418.400000
864 11422 865 1 109.50000 418.400000
864 11422 867 1 109.50000 418.400000
864 11422 986 1 109.50000 418.400000
865 11422 867 1 109.50000 418.400000
865 11422 986 1 109.50000 418.400000
867 11422 986 1 109.50000 418.400000
723 11423 868 1 109.50000 418.400000
723 11423 869 1 109.50000 418.400000
723 11423 870 1 109.50000 418.400000
868 11423 869 1 109.50000 418.400000
868 11423 870 1 109.50000 418.400000
869 11423 870 1 109.50000 418.400000
871 11424 872 1 109.50000 418.400000
871 11424 873 1 109.50000 418.400000
871 11424 874 1 109.50000 418.400000
872 11424 873 1 109.50000 418.400000
872 11424 874 1 109.50000 418.400000
873 11424 874 1 109.50000 418.400000
875 11425 876 1 109.50000 418.400000
875 11425 877 1 109.50000 418.400000
875 11425 878 1 109.50000 418.400000
876 11425 877 1 109.50000 418.400000
876 11425 878 1 109.50000 418.400000
877 11425 878 1 109.50000 418.400000
879 11426 880 1 109.50000 418.400000
879 11426 881 1 109.50000 418.400000
879 11426 882 1 109.50000 418.400000
880 11426 881 1 109.50000 418.400000
880 11426 882 1 109.50000 418.400000
881 11426 882 1 109.50000 418.400000
883 11427 884 1 109.50000 418.400000
883 11427 885 1 109.50000 418.400000
883 11427 886 1 109.50000 418.400000
884 11427 885 1 109.50000 418.400000
884 11427 886 1 109.50000 418.400000
885 11427 886 1 109.50000 418.400000
887 11428 888 1 109.50000 418.400000
887 11428 889 1 109.50000 418.400000
887 11428 11175 1 109.50000 418.400000
888 11428 889 1 109.50000 418.400000
888 11428 11175 1 109.50000 418.400000
889 11428 11175 1 109.50000 418.400000
890 11429 891 1 109.50000 418.400000
890 11429 892 1 109.50000 418.400000
890 11429 893 1 109.50000 418.400000
891 11429 892 1 109.50000 418.400000
891 11429 893 1 109.50000 418.400000
892 11429 893 1 109.50000 418.400000
894 11430 1220 1 109.50000 418.400000
894 11430 4030 1 109.50000 418.400000
894 11430 9955 1 109.50000 418.400000
1220 11430 4030 1 109.50000 418.400000
1220 11430 9955 1 109.50000 418.400000
4030 11430 9955 1 109.50000 418.400000
898 11431 899 1 109.50000 418.400000
898 11431 900 1 109.50000 418.400000
898 11431 901 1 109.50000 418.400000
899 11431 900 1 109.50000 418.400000
899 11431 901 1 109.50000 418.400000
900 11431 901 1 109.50000 418.400000
904 11432 1030 1 109.50000 418.400000
904 11432 4463 1 109.50000 418.400000
904 11432 5476 1 109.50000 418.400000
1030 11432 4463 1 109.50000 418.400000
1030 11432 5476 1 109.50000 418.400000
4463 11432 5476 1 109.50000 418.400000
907 11433 908 1 109.50000 418.400000
907 11433 909 1 109.50000 418.400000
907 11433 5450 1 109.50000 418.400000
908 11433 909 1 109.50000 418.400000
908 11433 5450 1 109.50000 418.400000
909 11433 5450 1 109.50000 418.400000
910 11434 911 1 109.50000 418.400000
910 11434 912 1 109.50000 418.400000
910 11434 913 1 109.50000 418.400000
911 11434 912 1 109.50000 418.400000
911 11434 913 1 109.50000 418.400000
912 11434 913 1 109.50000 418.400000
914 11435 915 1 109.50000 418.400000
914 11435 916 1 109.50000 418.400000
914 11435 917 1 109.50000 418.400000
915 11435 916 1 109.50000 418.400000
915 11435 917 1 109.50000 418.400000
916 11435 917 1 109.50000 418.400000
488 11436 918 1 109.50000 418.400000
488 11436 919 1 109.50000 418.400000
488 11436 920 1 109.50000 418.400000
918 11436 919 1 109.50000 418.400000
918 11436 920 1 109.50000 418.400000
919 11436 920 1 109.50000 418.400000
921 11437 922 1 109.50000 418.400000
921 11437 923 1 109.50000 418.400000
921 11437 924 1 109.50000 418.400000
922 11437 923 1 109.50000 418.400000
922 11437 924 1 109.50000 418.400000
923 11437 924 1 109.50000 418.400000
925 11438 926 1 109.50000 418.400000
925 11438 927 1 109.50000 418.400000
925 11438 928 1 109.50000 418.400000
926 11438 927 1 109.50000 418.400000
926 11438 928 1 109.50000 418.400000
927 11438 928 1 109.50000 418.400000
929 11439 930 1 109.50000 418.400000
929 11439 931 1 109.50000 418.400000
929 11439 932 1 109.50000 418.400000
930 11439 931 1 109.50000 418.400000
930 11439 932 1 109.50000 418.400000
931 11439 932 1 109.50000 418.400000
933 11440 934 1 109.50000 418.400000
933 11440 935 1 109.50000 418.400000
933 11440 936 1 109.50000 418.400000
934 11440 935 1 109.50000 418.400000
934 11440 936 1 109.50000 418.400000
935 11440 936 1 109.50000 418.400000
937 11441 938 1 109.50000 418.400000
937 11441 939 1 109.50000 418.400000
937 11441 940 1 109.50000 418.400000
938 11441 939 1 109.50000 418.400000
938 11441 940 1 109.50000 418.400000
939 11441 940 1 109.50000 418.400000
941 11442 942 1 109.50000 418.400000
941 11442 943 1 109.50000 418.400000
941 11442 944 1 109.50000 418.400000
942 11442 943 1 109.50000 418.400000
942 11442 944 1 109.50000 418.400000
943 11442 944 1 109.50000 418.400000
945 11443 946 1 109.50000 418.400000
945 11443 947 1 109.50000 418.400000
945 11443 948 1 109.50000 418.400000
946 11443 947 1 109.50000 418.400000
946 11443 948 1 109.50000 418.400000
947 11443 948 1 109.50000 418.400000
950 11444 951 1 109.50000 418.400000
950 11444 952 1 109.50000 418.400000
950 11444 8456 1 109.50000 418.400000
951 11444 952 1 109.50000 418.400000
951 11444 8456 1 109.50000 418.400000
952 11444 8456 1 109.50000 418.400000
953 11445 954 1 109.50000 418.400000
953 11445 955 1 109.50000 418.400000
953 11445 956 1 109.50000 418.400000
954 11445 955 1 109.50000 418.400000
954 11445 956 1 109.50000 418.400000
955 11445 956 1 109.50000 418.400000
957 11446 958 1 109.50000 418.400000
957 11446 1203 1 109.50000 418.400000
957 11446 3770 1 109.50000 418.400000
958 11446 1203 1 109.50000 418.400000
958 11446 3770 1 109.50000 418.400000
1203 11446 3770 1 109.50000 418.400000
925 11447 961 1 109.50000 418.400000
925 11447 962 1 109.50000 418.400000
925 11447 963 1 109.50000 418.400000
961 11447 962 1 109.50000 418.400000
961 11447 963 1 109.50000 418.400000
962 11447 963 1 109.50000 418.400000
966 11448 967 1 109.50000 418.400000
966 11448 968 1 109.50000 418.400000
966 11448 969 1 109.50000 418.400000
967 11448 968 1 109.50000 418.400000
967 11448 969 1 109.50000 418.400000
968 11448 969 1 109.50000 418.400000
970 11449 971 1 109.50000 418.400000
970 11449 972 1 109.50000 418.400000
970 11449 973 1 109.50000 418.400000
971 11449 972 1 109.50000 418.400000
971 11449 973 1 109.50000 418.400000
972 11449 973 1 109.50000 418.400000
974 11450 975 1 109.50000 418.400000
974 11450 976 1 109.50000 418.400000
974 11450 977 1 109.50000 418.400000
975 11450 976 1 109.50000 418.400000
975 11450 977 1 109.50000 418.400000
976 11450 977 1 109.50000 418.400000
981 11451 983 1 109.50000 418.400000
981 11451 984 1 109.50000 418.400000
981 11451 5879 1 109.50000 418.400000
983 11451 984 1 109.50000 418.400000
983 11451 5879 1 109.50000 418.400000
984 11451 5879 1 109.50000 418.400000
865 11452 866 1 109.50000 418.400000
865 11452 987 1 109.50000 418.400000
865 11452 988 1 109.50000 418.400000
866 11452 987 1 109.50000 418.400000
866 11452 988 1 109.50000 418.400000
987 11452 988 1 109.50000 418.400000
989 11453 990 1 109.50000 418.400000
989 11453 991 1 109.50000 418.400000
989 11453 992 1 109.50000 418.400000
990 11453 991 1 109.50000 418.400000
990 11453 992 1 109.50000 418.400000
991 11453 992 1 109.50000 418.400000
331 11454 993 1 109.50000 418.400000
331 11454 994 1 109.50000 418.400000
331 11454 995 1 109.50000 418.400000
993 11454 994 1 109.50000 418.400000
993 11454 995 1 109.50000 418.400000
994 11454 995 1 109.50000 418.400000
996 11455 997 1 109.50000 418.400000
996 11455 998 1 109.50000 418.400000
996 11455 999 1 109.50000 418.400000
997 11455 998 1 109.50000 418.400000
997 11455 999 1 109.50000 418.400000
998 11455 999 1 109.50000 418.400000
1000 11456 1001 1 109.50000 418.400000
1000 11456 1002 1 109.50000 418.400000
1000 11456 1003 1 109.50000 418.400000
1001 11456 1002 1 109.50000 418.400000
1001 11456 1003 1 109.50000 418.400000
1002 11456 1003 1 109.50000 418.400000
1004 11457 1005 1 109.50000 418.400000
1004 11457 1006 1 109.50000 418.400000
1004 11457 1007 1 109.50000 418.400000
1005 11457 1006 1 109.50000 418.400000
1005 11457 1007 1 109.50000 418.400000
1006 11457 1007 1 109.50000 418.400000
1008 11458 1009 1 109.50000 418.400000
1008 11458 1011 1 109.50000 418.400000
1008 11458 9846 1 109.50000 418.400000
1009 11458 1011 1 109.50000 418.400000
1009 11458 9846 1 109.50000 418.400000
1011 11458 9846 1 109.50000 418.400000
1012 11459 1013 1 109.50000 418.400000
1012 11459 1014 1 109.50000 418.400000
1012 11459 1015 1 109.50000 418.400000
1013 11459 1014 1 109.50000 418.400000
1013 11459 1015 1 109.50000 418.400000
1014 11459 1015 1 109.50000 418.400000
1016 11460 1017 1 109.50000 418.400000
1016 11460 1018 1 109.50000 418.400000
1016 11460 1019 1 109.50000 418.400000
1017 11460 1018 1 109.50000 418.400000
1017 11460 1019 1 109.50000 418.400000
1018 11460 1019 1 109.50000 418.400000
953 11461 1020 1 109.50000 418.400000
953 11461 1021 1 109.50000 418.400000
953 11461 1022 1 109.50000 418.400000
1020 11461 1021 1 109.50000 418.400000
1020 11461 1022 1 109.50000 418.400000
1021 11461 1022 1 109.50000 418.400000
1023 11462 1024 1 109.50000 418.400000
1023 11462 1025 1 109.50000 418.400000
1023 11462 1026 1 109.50000 418.400000
1024 11462 1025 1 109.50000 418.400000
1024 11462 1026 1 109.50000 418.400000
1025 11462 1026 1 109.50000 418.400000
1030 11463 1031 1 109.50000 418.400000
1030 11463 1032 1 109.50000 418.400000
1030 11463 1033 1 109.50000 418.400000
1031 11463 1032 1 109.50000 418.400000
1031 11463 1033 1 109.50000 418.400000
1032 11463 1033 1 109.50000 418.400000
1039 11464 1312 1 109.50000 418.400000
1039 11464 2942 1 109.50000 418.400000
1039 11464 10422 1 109.50000 418.400000
1312 11464 2942 1 109.50000 418.400000
1312 11464 10422 1 109.50000 418.400000
2942 11464 10422 1 109.50000 418.400000
869 11465 1040 1 109.50000 418.400000
869 11465 1041 1 109.50000 418.400000
869 11465 1042 1 109.50000 418.400000
1040 11465 1041 1 109.50000 418.400000
1040 11465 1042 1 109.50000 418.400000
1041 11465 1042 1 109.50000 418.400000
1045 11466 1046 1 109.50000 418.400000
1045 11466 1047 1 109.50000 418.400000
1045 11466 1048 1 109.50000 418.400000
1046 11466 1047 1 109.50000 418.400000
1046 11466 1048 1 109.50000 418.400000
1047 11466 1048 1 109.50000 418.400000
398 11467 1049 1 109.50000 418.400000
398 11467 1050 1 109.50000 418.400000
398 11467 1051 1 109.50000 418.400000
1049 11467 1050 1 109.50000 418.400000
1049 11467 1051 1 109.50000 418.400000
1050 11467 1051 1 109.50000 418.400000
1052 11468 1053 1 109.50000 418.400000
1052 11468 1054 1 109.50000 418.400000
1052 11468 1055 1 109.50000 418.400000
1053 11468 1054 1 109.50000 418.400000
1053 11468 1055 1 109.50000 418.400000
1054 11468 1055 1 109.50000 418.400000
1056 11469 1057 1 109.50000 418.400000
1056 11469 1058 1 109.50000 418.400000
1056 11469 1059 1 109.50000 418.400000
1057 11469 1058 1 109.50000 418.400000
1057 11469 1059 1 109.50000 418.400000
1058 11469 1059 1 109.50000 418.400000
856 11470 1060 1 109.50000 418.400000
856 11470 1061 1 109.50000 418.400000
856 11470 8585 1 109.50000 418.400000
1060 11470 1061 1 109.50000 418.400000
1060 11470 8585 1 109.50000 418.400000
1061 11470 8585 1 109.50000 418.400000
1064 11471 6547 1 109.50000 418.400000
1064 11471 6548 1 109.50000 418.400000
1064 11471 6549 1 109.50000 418.400000
6547 11471 6548 1 109.50000 418.400000
6547 11471 6549 1 109.50000 418.400000
6548 11471 6549 1 109.50000 418.400000
1066 11472 1067 1 109.50000 418.400000
1066 11472 1068 1 109.50000 418.400000
1066 11472 1069 1 109.50000 418.400000
1067 11472 1068 1 109.50000 418.400000
1067 11472 1069 1 109.50000 418.400000
1068 11472 1069 1 109.50000 418.400000
570 11473 1070 1 109.50000 418.400000
570 11473 1071 1 109.50000 418.400000
570 11473 1072 1 109.50000 418.400000
1070 11473 1071 1 109.50000 418.400000
1070 11473 1072 1 109.50000 418.400000
1071 11473 1072 1 109.50000 418.400000
1073 11474 1074 1 109.50000 418.400000
1073 11474 1075 1 109.50000 418.400000
1073 11474 1076 1 109.50000 418.400000
1074 11474 1075 1 109.50000 418.400000
1074 11474 1076 1 109.50000 418.400000
1075 11474 1076 1 109.50000 418.400000
1077 11475 1078 1 109.50000 418.400000
1077 11475 1079 1 109.50000 418.400000
1077 11475 1080 1 109.50000 418.400000
1078 11475 1079 1 109.50000 418.400000
1078 11475 1080 1 109.50000 418.400000
1079 11475 1080 1 109.50000 418.400000
1081 11476 1082 1 109.50000 418.400000
1081 11476 1083 1 109.50000 418.400000
1081 11476 1084 1 109.50000 418.400000
1082 11476 1083 1 109.50000 418.400000
1082 11476 1084 1 109.50000 418.400000
1083 11476 1084 1 109.50000 418.400000
1085 11477 1086 1 109.50000 418.400000
1085 11477 1087 1 109.50000 418.400000
1085 11477 1088 1 109.50000 418.400000
1086 11477 1087 1 109.50000 418.400000
1086 11477 1088 1 109.50000 418.400000
1087 11477 1088 1 109.50000 418.400000
1089 11478 1090 1 109.50000 418.400000
1089 11478 1091 1 109.50000 418.400000
1089 11478 1092 1 109.50000 418.400000
1090 11478 1091 1 109.50000 418.400000
1090 11478 1092 1 109.50000 418.400000
1091 11478 1092 1 109.50000 418.400000
609 11479 1093 1 109.50000 418.400000
609 11479 1094 1 109.50000 418.400000
609 11479 1095 1 109.50000 418.400000
1093 11479 1094 1 109.50000 418.400000
1093 11479 1095 1 109.50000 418.400000
1094 11479 1095 1 109.50000 418.400000
1096 11480 1097 1 109.50000 418.400000
1096 11480 1098 1 109.50000 418.400000
1096 11480 1099 1 109.50000 418.400000
1097 11480 1098 1 109.50000 418.400000
1097 11480 1099 1 109.50000 418.400000
1098 11480 1099 1 109.50000 418.400000
1100 11481 1101 1 109.50000 418.400000
1100 11481 1102 1 109.50000 418.400000
1100 11481 1103 1 109.50000 418.400000
1101 11481 1102 1 109.50000 418.400000
1101 11481 1103 1 109.50000 418.400000
1102 11481 1103 1 109.50000 418.400000
101 11482 1104 1 109.50000 418.400000
101 11482 1105 1 109.50000 418.400000
101 11482 1106 1 109.50000 418.400000
1104 11482 1105 1 109.50000 418.400000
1104 11482 1106 1 109.50000 418.400000
1105 11482 1106 1 109.50000 418.400000
1107 11483 1647 1 109.50000 418.400000
1107 11483 1649 1 109.50000 418.400000
1107 11483 3057 1 109.50000 418.400000
1647 11483 1649 1 109.50000 418.400000
1647 11483 3057 1 109.50000 418.400000
1649 11483 3057 1 109.50000 418.400000
1113 11484 1115 1 109.50000 418.400000
1113 11484 1116 1 109.50000 418.400000
1113 11484 4528 1 109.50000 418.400000
1115 11484 1116 1 109.50000 418.400000
1115 11484 4528 1 109.50000 418.400000
1116 11484 4528 1 109.50000 418.400000
1117 11485 1118 1 109.50000 418.400000
1117 11485 1119 1 109.50000 418.400000
1117 11485 1120 1 109.50000 418.400000
1118 11485 1119 1 109.50000 418.400000
1118 11485 1120 1 109.50000 418.400000
1119 11485 1120 1 109.50000 418.400000
1121 11486 1122 1 109.50000 418.400000
1121 11486 1123 1 109.50000 418.400000
1121 11486 1124 1 109.50000 418.400000
1122 11486 1123 1 109.50000 418.400000
1122 11486 1124 1 109.50000 418.400000
1123 11486 1124 1 109.50000 418.400000
1008 11487 1125 1 109.50000 418.400000
1008 11487 1126 1 109.50000 418.400000
1008 11487 1127 1 109.50000 418.400000
1125 11487 1126 1 109.50000 418.400000
1125 11487 1127 1 109.50000 418.400000
1126 11487 1127 1 109.50000 418.400000
758 11488 992 1 109.50000 418.400000
758 11488 1128 1 109.50000 418.400000
758 11488 1129 1 109.50000 418.400000
992 11488 1128 1 109.50000 418.400000
992 11488 1129 1 109.50000 418.400000
1128 11488 1129 1 109.50000 418.400000
553 11489 555 1 109.50000 418.400000
553 11489 1130 1 109.50000 418.400000
553 11489 1132 1 109.50000 418.400000
555 11489 1130 1 109.50000 418.400000
555 11489 1132 1 109.50000 418.400000
1130 11489 1132 1 109.50000 418.400000
1133 11490 1134 1 109.50000 418.400000
1133 11490 1135 1 109.50000 418.400000
1133 11490 1136 1 109.50000 418.400000
1134 11490 1135 1 109.50000 418.400000
1134 11490 1136 1 109.50000 418.400000
1135 11490 1136 1 109.50000 418.400000
1138 11491 1139 1 109.50000 418.400000
1138 11491 1140 1 109.50000 418.400000
1138 11491 1141 1 109.50000 418.400000
1139 11491 1140 1 109.50000 418.400000
1139 11491 1141 1 109.50000 418.400000
1140 11491 1141 1 109.50000 418.400000
1142 11492 1143 1 109.50000 418.400000
1142 11492 1144 1 109.50000 418.400000
1142 11492 1145 1 109.50000 418.400000
1143 11492 1144 1 109.50000 418.400000
1143 11492 1145 1 109.50000 418.400000
1144 11492 1145 1 109.50000 418.400000
1146 11493 1147 1 109.50000 418.400000
1146 11493 1148 1 109.50000 418.400000
1146 11493 1149 1 109.50000 418.400000
1147 11493 1148 1 109.50000 418.400000
1147 11493 1149 1 109.50000 418.400000
1148 11493 1149 1 109.50000 418.400000
151 11494 1150 1 109.50000 418.400000
151 11494 1152 1 109.50000 418.400000
151 11494 7371 1 109.50000 418.400000
1150 11494 1152 1 109.50000 418.400000
1150 11494 7371 1 109.50000 418.400000
1152 11494 7371 1 109.50000 418.400000
1153 11495 1154 1 109.50000 418.400000
1153 11495 1155 1 109.50000 418.400000
1153 11495 1156 1 109.50000 418.400000
1154 11495 1155 1 109.50000 418.400000
1154 11495 1156 1 109.50000 418.400000
1155 11495 1156 1 109.50000 418.400000
941 11496 1157 1 109.50000 418.400000
941 11496 1158 1 109.50000 418.400000
941 11496 1159 1 109.50000 418.400000
1157 11496 1158 1 109.50000 418.400000
1157 11496 1159 1 109.50000 418.400000
1158 11496 1159 1 109.50000 418.400000
1161 11497 1162 1 109.50000 418.400000
1161 11497 6020 1 109.50000 418.400000
1161 11497 6021 1 109.50000 418.400000
1162 11497 6020 1 109.50000 418.400000
1162 11497 6021 1 109.50000 418.400000
6020 11497 6021 1 109.50000 418.400000
1164 11498 1165 1 109.50000 418.400000
1164 11498 1166 1 109.50000 418.400000
1164 11498 1167 1 109.50000 418.400000
1165 11498 1166 1 109.50000 418.400000
1165 11498 1167 1 109.50000 418.400000
1166 11498 1167 1 109.50000 418.400000
1168 11499 1169 1 109.50000 418.400000
1168 11499 1170 1 109.50000 418.400000
1168 11499 1171 1 109.50000 418.400000
1169 11499 1170 1 109.50000 418.400000
1169 11499 1171 1 109.50000 418.400000
1170 11499 1171 1 109.50000 418.400000
1172 11500 1173 1 109.50000 418.400000
1172 11500 1174 1 109.50000 418.400000
1172 11500 1175 1 109.50000 418.400000
1173 11500 1174 1 109.50000 418.400000
1173 11500 1175 1 109.50000 418.400000
1174 11500 1175 1 109.50000 418.400000
531 11501 1176 1 109.50000 418.400000
531 11501 1177 1 109.50000 418.400000
531 11501 1178 1 109.50000 418.400000
1176 11501 1177 1 109.50000 418.400000
1176 11501 1178 1 109.50000 418.400000
1177 11501 1178 1 109.50000 418.400000
1181 11502 1182 1 109.50000 418.400000
1181 11502 1183 1 109.50000 418.400000
1181 11502 1184 1 109.50000 418.400000
1182 11502 1183 1 109.50000 418.400000
1182 11502 1184 1 109.50000 418.400000
1183 11502 1184 1 109.50000 418.400000
1185 11503 1186 1 109.50000 418.400000
1185 11503 1187 1 109.50000 418.400000
1185 11503 1188 1 109.50000 418.400000
1186 11503 1187 1 109.50000 418.400000
1186 11503 1188 1 109.50000 418.400000
1187 11503 1188 1 109.50000 418.400000
1189 11504 1190 1 109.50000 418.400000
1189 11504 1191 1 109.50000 418.400000
1189 11504 5161 1 109.50000 418.400000
1190 11504 1191 1 109.50000 418.400000
1190 11504 5161 1 109.50000 418.400000
1191 11504 5161 1 109.50000 418.400000
1193 11505 1194 1 109.50000 418.400000
1193 11505 1195 1 109.50000 418.400000
1193 11505 1196 1 109.50000 418.400000
1194 11505 1195 1 109.50000 418.400000
1194 11505 1196 1 109.50000 418.400000
1195 11505 1196 1 109.50000 418.400000
1143 11506 1197 1 109.50000 418.400000
1143 11506 1198 1 109.50000 418.400000
1143 11506 10092 1 109.50000 418.400000
1197 11506 1198 1 109.50000 418.400000
1197 11506 10092 1 109.50000 418.400000
1198 11506 10092 1 109.50000 418.400000
1200 11507 1201 1 109.50000 418.400000
1200 11507 1202 1 109.50000 418.400000
1200 11507 7373 1 109.50000 418.400000
1201 11507 1202 1 109.50000 418.400000
1201 11507 7373 1 109.50000 418.400000
1202 11507 7373 1 109.50000 418.400000
957 11508 959 1 109.50000 418.400000
957 11508 1204 1 109.50000 418.400000
957 11508 1205 1 109.50000 418.400000
959 11508 1204 1 109.50000 418.400000
959 11508 1205 1 109.50000 418.400000
1204 11508 1205 1 109.50000 418.400000
316 11509 1208 1 109.50000 418.400000
316 11509 1209 1 109.50000 418.400000
316 11509 1210 1 109.50000 418.400000
1208 11509 1209 1 109.50000 418.400000
1208 11509 1210 1 109.50000 418.400000
1209 11509 1210 1 109.50000 418.400000
1211 11510 1212 1 109.50000 418.400000
1211 11510 1213 1 109.50000 418.400000
1211 11510 1214 1 109.50000 418.400000
1212 11510 1213 1 109.50000 418.400000
1212 11510 1214 1 109.50000 418.400000
1213 11510 1214 1 109.50000 418.400000
1215 11511 1216 1 109.50000 418.400000
1215 11511 1217 1 109.50000 418.400000
1215 11511 1218 1 109.50000 418.400000
1216 11511 1217 1 109.50000 418.400000
1216 11511 1218 1 109.50000 418.400000
1217 11511 1218 1 109.50000 418.400000
894 11512 896 1 109.50000 418.400000
894 11512 1219 1 109.50000 418.400000
894 11512 1221 1 109.50000 418.400000
896 11512 1219 1 109.50000 418.400000
896 11512 1221 1 109.50000 418.400000
1219 11512 1221 1 109.50000 418.400000
1225 11513 1226 1 109.50000 418.400000
1225 11513 1227 1 109.50000 418.400000
1225 11513 1228 1 109.50000 418.400000
1226 11513 1227 1 109.50000 418.400000
1226 11513 1228 1 109.50000 418.400000
1227 11513 1228 1 109.50000 418.400000
1229 11514 1230 1 109.50000 418.400000
1229 11514 1231 1 109.50000 418.400000
1229 11514 1232 1 109.50000 418.400000
1230 11514 1231 1 109.50000 418.400000
1230 11514 1232 1 109.50000 418.400000
1231 11514 1232 1 109.50000 418.400000
1233 11515 1234 1 109.50000 418.400000
1233 11515 1235 1 109.50000 418.400000
1233 11515 1236 1 109.50000 418.400000
1234 11515 1235 1 109.50000 418.400000
1234 11515 1236 1 109.50000 418.400000
1235 11515 1236 1 109.50000 418.400000
687 11516 1240 1 109.50000 418.400000
687 11516 1241 1 109.50000 418.400000
687 11516 1242 1 109.50000 418.400000
1240 11516 1241 1 109.50000 418.400000
1240 11516 1242 1 109.50000 418.400000
1241 11516 1242 1 109.50000 418.400000
390 11517 1243 1 109.50000 418.400000
390 11517 1244 1 109.50000 418.400000
390 11517 1245 1 109.50000 418.400000
1243 11517 1244 1 109.50000 418.400000
1243 11517 1245 1 109.50000 418.400000
1244 11517 1245 1 109.50000 418.400000
1246 11518 1247 1 109.50000 418.400000
1246 11518 1248 1 109.50000 418.400000
1246 11518 1249 1 109.50000 418.400000
1247 11518 1248 1 109.50000 418.400000
1247 11518 1249 1 109.50000 418.400000
1248 11518 1249 1 109.50000 418.400000
1250 11519 1251 1 109.50000 418.400000
1250 11519 1252 1 109.50000 418.400000
1250 11519 1253 1 109.50000 418.400000
1251 11519 1252 1 109.50000 418.400000
1251 11519 1253 1 109.50000 418.400000
1252 11519 1253 1 109.50000 418.400000
1254 11520 1255 1 109.50000 418.400000
1254 11520 1256 1 109.50000 418.400000
1254 11520 1257 1 109.50000 418.400000
1255 11520 1256 1 109.50000 418.400000
1255 11520 1257 1 109.50000 418.400000
1256 11520 1257 1 109.50000 418.400000
1259 11521 1260 1 109.50000 418.400000
1259 11521 1261 1 109.50000 418.400000
1259 11521 1262 1 109.50000 418.400000
1260 11521 1261 1 109.50000 418.400000
1260 11521 1262 1 109.50000 418.400000
1261 11521 1262 1 109.50000 418.400000
160 11522 1263 1 109.50000 418.400000
160 11522 1264 1 109.50000 418.400000
160 11522 1265 1 109.50000 418.400000
1263 11522 1264 1 109.50000 418.400000
1263 11522 1265 1 109.50000 418.400000
1264 11522 1265 1 109.50000 418.400000
1266 11523 1267 1 109.50000 418.400000
1266 11523 1268 1 109.50000 418.400000
1266 11523 1269 1 109.50000 418.400000
1267 11523 1268 1 109.50000 418.400000
1267 11523 1269 1 109.50000 418.400000
1268 11523 1269 1 109.50000 418.400000
1270 11524 1271 1 109.50000 418.400000
1270 11524 1272 1 109.50000 418.400000
1270 11524 1273 1 109.50000 418.400000
1271 11524 1272 1 109.50000 418.400000
1271 11524 1273 1 109.50000 418.400000
1272 11524 1273 1 109.50000 418.400000
1274 11525 1275 1 109.50000 418.400000
1274 11525 1276 1 109.50000 418.400000
1274 11525 1277 1 109.50000 418.400000
1275 11525 1276 1 109.50000 418.400000
1275 11525 1277 1 109.50000 418.400000
1276 11525 1277 1 109.50000 418.400000
1278 11526 1279 1 109.50000 418.400000
1278 11526 1280 1 109.50000 418.400000
1278 11526 1281 1 109.50000 418.400000
1279 11526 1280 1 109.50000 418.400000
1279 11526 1281 1 109.50000 418.400000
1280 11526 1281 1 109.50000 418.400000
1282 11527 1283 1 109.50000 418.400000
1282 11527 1285 1 109.50000 418.400000
1282 11527 8383 1 109.50000 418.400000
1283 11527 1285 1 109.50000 418.400000
1283 11527 8383 1 109.50000 418.400000
1285 11527 8383 1 109.50000 418.400000
949 11528 1289 1 109.50000 418.400000
949 11528 1290 1 109.50000 418.400000
949 11528 1291 1 109.50000 418.400000
1289 11528 1290 1 109.50000 418.400000
1289 11528 1291 1 109.50000 418.400000
1290 11528 1291 1 109.50000 418.400000
1292 11529 1293 1 109.50000 418.400000
1292 11529 1294 1 109.50000 418.400000
1292 11529 1295 1 109.50000 418.400000
1293 11529 1294 1 109.50000 418.400000
1293 11529 1295 1 109.50000 418.400000
1294 11529 1295 1 109.50000 418.400000
668 11530 1296 1 109.50000 418.400000
668 11530 1297 1 109.50000 418.400000
668 11530 1298 1 109.50000 418.400000
1296 11530 1297 1 109.50000 418.400000
1296 11530 1298 1 109.50000 418.400000
1297 11530 1298 1 109.50000 418.400000
1299 11531 1300 1 109.50000 418.400000
1299 11531 1301 1 109.50000 418.400000
1299 11531 1302 1 109.50000 418.400000
1300 11531 1301 1 109.50000 418.400000
1300 11531 1302 1 109.50000 418.400000
1301 11531 1302 1 109.50000 418.400000
1303 11532 1305 1 109.50000 418.400000
1303 11532 1306 1 109.50000 418.400000
1303 11532 8986 1 109.50000 418.400000
1305 11532 1306 1 109.50000 418.400000
1305 11532 8986 1 109.50000 418.400000
1306 11532 8986 1 109.50000 418.400000
1047 11533 1307 1 109.50000 418.400000
1047 11533 1308 1 109.50000 418.400000
1047 11533 1309 1 109.50000 418.400000
1307 11533 1308 1 109.50000 418.400000
1307 11533 1309 1 109.50000 418.400000
1308 11533 1309 1 109.50000 418.400000
1225 11534 1310 1 109.50000 418.400000
1225 11534 1311 1 109.50000 418.400000
1225 11534 1312 1 109.50000 418.400000
1310 11534 1311 1 109.50000 418.400000
1310 11534 1312 1 109.50000 418.400000
1311 11534 1312 1 109.50000 418.400000
1313 11535 1314 1 109.50000 418.400000
1313 11535 1315 1 109.50000 418.400000
1313 11535 1316 1 109.50000 418.400000
1314 11535 1315 1 109.50000 418.400000
1314 11535 1316 1 109.50000 418.400000
1315 11535 1316 1 109.50000 418.400000
1317 11536 1318 1 109.50000 418.400000
1317 11536 1319 1 109.50000 418.400000
1317 11536 1320 1 109.50000 418.400000
1318 11536 1319 1 109.50000 418.400000
1318 11536 1320 1 109.50000 418.400000
1319 11536 1320 1 109.50000 418.400000
1321 11537 1322 1 109.50000 418.400000
1321 11537 1323 1 109.50000 418.400000
1321 11537 1324 1 109.50000 418.400000
1322 11537 1323 1 109.50000 418.400000
1322 11537 1324 1 109.50000 418.400000
1323 11537 1324 1 109.50000 418.400000
1325 11538 1326 1 109.50000 418.400000
1325 11538 1327 1 109.50000 418.400000
1325 11538 1328 1 109.50000 418.400000
1326 11538 1327 1 109.50000 418.400000
1326 11538 1328 1 109.50000 418.400000
1327 11538 1328 1 109.50000 418.400000
1332 11539 1333 1 109.50000 418.400000
1332 11539 1334 1 109.50000 418.400000
1332 11539 1335 1 109.50000 418.400000
1333 11539 1334 1 109.50000 418.400000
1333 11539 1335 1 109.50000 418.400000
1334 11539 1335 1 109.50000 418.400000
1336 11540 1337 1 109.50000 418.400000
1336 11540 1338 1 109.50000 418.400000
1336 11540 1339 1 109.50000 418.400000
1337 11540 1338 1 109.50000 418.400000
1337 11540 1339 1 109.50000 418.400000
1338 11540 1339 1 109.50000 418.400000
311 11541 1340 1 109.50000 418.400000
311 11541 1341 1 109.50000 418.400000
311 11541 1342 1 109.50000 418.400000
1340 11541 1341 1 109.50000 418.400000
1340 11541 1342 1 109.50000 418.400000
1341 11541 1342 1 109.50000 418.400000
1345 11542 1346 1 109.50000 418.400000
1345 11542 1347 1 109.50000 418.400000
1345 11542 1348 1 109.50000 418.400000
1346 11542 1347 1 109.50000 418.400000
1346 11542 1348 1 109.50000 418.400000
1347 11542 1348 1 109.50000 418.400000
1351 11543 5197 1 109.50000 418.400000
1351 11543 7319 1 109.50000 418.400000
1351 11543 7320 1 109.50000 418.400000
5197 11543 7319 1 109.50000 418.400000
5197 11543 7320 1 109.50000 418.400000
7319 11543 7320 1 109.50000 418.400000
1353 11544 1355 1 109.50000 418.400000
1353 11544 1356 1 109.50000 418.400000
1353 11544 9709 1 109.50000 418.400000
1355 11544 1356 1 109.50000 418.400000
1355 11544 9709 1 109.50000 418.400000
1356 11544 9709 1 109.50000 418.400000
1358 11545 1360 1 109.50000 418.400000
1358 11545 3234 1 109.50000 418.400000
1358 11545 3235 1 109.50000 418.400000
1360 11545 3234 1 109.50000 418.400000
1360 11545 3235 1 109.50000 418.400000
3234 11545 3235 1 109.50000 418.400000
1361 11546 1362 1 109.50000 418.400000
1361 11546 1363 1 109.50000 418.400000
1361 11546 1364 1 109.50000 418.400000
1362 11546 1363 1 109.50000 418.400000
1362 11546 1364 1 109.50000 418.400000
1363 11546 1364 1 109.50000 418.400000
1365 11547 1366 1 109.50000 418.400000
1365 11547 1367 1 109.50000 418.400000
1365 11547 1368 1 109.50000 418.400000
1366 11547 1367 1 109.50000 418.400000
1366 11547 1368 1 109.50000 418.400000
1367 11547 1368 1 109.50000 418.400000
1369 11548 1370 1 109.50000 418.400000
1369 11548 1371 1 109.50000 418.400000
1369 11548 1372 1 109.50000 418.400000
1370 11548 1371 1 109.50000 418.400000
1370 11548 1372 1 109.50000 418.400000
1371 11548 1372 1 109.50000 418.400000
4 11549 1373 1 109.50000 418.400000
4 11549 1374 1 109.50000 418.400000
4 11549 1375 1 109.50000 418.400000
1373 11549 1374 1 109.50000 418.400000
1373 11549 1375 1 109.50000 418.400000
1374 11549 1375 1 109.50000 418.400000
1376 11550 1377 1 109.50000 418.400000
1376 11550 1378 1 109.50000 418.400000
1376 11550 1379 1 109.50000 418.400000
1377 11550 1378 1 109.50000 418.400000
1377 11550 1379 1 109.50000 418.400000
1378 11550 1379 1 109.50000 418.400000
1383 11551 1384 1 109.50000 418.400000
1383 11551 1385 1 109.50000 418.400000
1383 11551 1386 1 109.50000 418.400000
1384 11551 1385 1 109.50000 418.400000
1384 11551 1386 1 109.50000 418.400000
1385 11551 1386 1 109.50000 418.400000
1390 11552 1391 1 109.50000 418.400000
1390 11552 1392 1 109.50000 418.400000
1390 11552 1393 1 109.50000 418.400000
1391 11552 1392 1 109.50000 418.400000
1391 11552 1393 1 109.50000 418.400000
1392 11552 1393 1 109.50000 418.400000
1394 11553 1395 1 109.50000 418.400000
1394 11553 1396 1 109.50000 418.400000
1394 11553 1397 1 109.50000 418.400000
1395 11553 1396 1 109.50000 418.400000
1395 11553 1397 1 109.50000 418.400000
1396 11553 1397 1 109.50000 418.400000
1398 11554 1399 1 109.50000 418.400000
1398 11554 1400 1 109.50000 418.400000
1398 11554 1401 1 109.50000 418.400000
1399 11554 1400 1 109.50000 418.400000
1399 11554 1401 1 109.50000 418.400000
1400 11554 1401 1 109.50000 418.400000
1402 11555 1404 1 109.50000 418.400000
1402 11555 1405 1 109.50000 418.400000
1402 11555 3796 1 109.50000 418.400000
1404 11555 1405 1 109.50000 418.400000
1404 11555 3796 1 109.50000 418.400000
1405 11555 3796 1 109.50000 418.400000
1410 11556 1411 1 109.50000 418.400000
1410 11556 1412 1 109.50000 418.400000
1410 11556 5204 1 109.50000 418.400000
1411 11556 1412 1 109.50000 418.400000
1411 11556 5204 1 109.50000 418.400000
1412 11556 5204 1 109.50000 418.400000
1218 11557 1415 1 109.50000 418.400000
1218 11557 1416 1 109.50000 418.400000
1218 11557 1417 1 109.50000 418.400000
1415 11557 1416 1 109.50000 418.400000
1415 11557 1417 1 109.50000 418.400000
1416 11557 1417 1 109.50000 418.400000
1418 11558 1419 1 109.50000 418.400000
1418 11558 1420 1 109.50000 418.400000
1418 11558 1421 1 109.50000 418.400000
1419 11558 1420 1 109.50000 418.400000
1419 11558 1421 1 109.50000 418.400000
1420 11558 1421 1 109.50000 418.400000
1422 11559 1423 1 109.50000 418.400000
1422 11559 1424 1 109.50000 418.400000
1422 11559 1425 1 109.50000 418.400000
1423 11559 1424 1 109.50000 418.400000
1423 11559 1425 1 109.50000 418.400000
1424 11559 1425 1 109.50000 418.400000
1426 11560 1427 1 109.50000 418.400000
1426 11560 1428 1 109.50000 418.400000
1426 11560 1429 1 109.50000 418.400000
1427 11560 1428 1 109.50000 418.400000
1427 11560 1429 1 109.50000 418.400000
1428 11560 1429 1 109.50000 418.400000
984 11561 1430 1 109.50000 418.400000
984 11561 1431 1 109.50000 418.400000
984 11561 1432 1 109.50000 418.400000
1430 11561 1431 1 109.50000 418.400000
1430 11561 1432 1 109.50000 418.400000
1431 11561 1432 1 109.50000 418.400000
339 11562 1433 1 109.50000 418.400000
339 11562 1434 1 109.50000 418.400000
339 11562 1435 1 109.50000 418.400000
1433 11562 1434 1 109.50000 418.400000
1433 11562 1435 1 109.50000 418.400000
1434 11562 1435 1 109.50000 418.400000
1436 11563 1437 1 109.50000 418.400000
1436 11563 1438 1 109.50000 418.400000
1436 11563 1439 1 109.50000 418.400000
1437 11563 1438 1 109.50000 418.400000
1437 11563 1439 1 109.50000 418.400000
1438 11563 1439 1 109.50000 418.400000
1440 11564 1441 1 109.50000 418.400000
1440 11564 1442 1 109.50000 418.400000
1440 11564 8166 1 109.50000 418.400000
1441 11564 1442 1 109.50000 418.400000
1441 11564 8166 1 109.50000 418.400000
1442 11564 8166 1 109.50000 418.400000
1445 11565 1446 1 109.50000 418.400000
1445 11565 1447 1 109.50000 418.400000
1445 11565 1448 1 109.50000 418.400000
1446 11565 1447 1 109.50000 418.400000
1446 11565 1448 1 109.50000 418.400000
1447 11565 1448 1 109.50000 418.400000
129 11566 1451 1 109.50000 418.400000
129 11566 1452 1 109.50000 418.400000
129 11566 1453 1 109.50000 418.400000
1451 11566 1452 1 109.50000 418.400000
1451 11566 1453 1 109.50000 418.400000
1452 11566 1453 1 109.50000 418.400000
1256 11567 1457 1 109.50000 418.400000
1256 11567 1458 1 109.50000 418.400000
1256 11567 1459 1 109.50000 418.400000
1457 11567 1458 1 109.50000 418.400000
1457 11567 1459 1 109.50000 418.400000
1458 11567 1459 1 109.50000 418.400000
1461 11568 1462 1 109.50000 418.400000
1461 11568 8161 1 109.50000 418.400000
1461 11568 8162 1 109.50000 418.400000
1462 11568 8161 1 109.50000 418.400000
1462 11568 8162 1 109.50000 418.400000
8161 11568 8162 1 109.50000 418.400000
1464 11569 1465 1 109.50000 418.400000
1464 11569 1466 1 109.50000 418.400000
1464 11569 1467 1 109.50000 418.400000
1465 11569 1466 1 109.50000 418.400000
1465 11569 1467 1 109.50000 418.400000
1466 11569 1467 1 109.50000 418.400000
1472 11570 1473 1 109.50000 418.400000
1472 11570 1474 1 109.50000 418.400000
1472 11570 1475 1 109.50000 418.400000
1473 11570 1474 1 109.50000 418.400000
1473 11570 1475 1 109.50000 418.400000
1474 11570 1475 1 109.50000 418.400000
1478 11571 1479 1 109.50000 418.400000
1478 11571 1480 1 109.50000 418.400000
1478 11571 1481 1 109.50000 418.400000
1479 11571 1480 1 109.50000 418.400000
1479 11571 1481 1 109.50000 418.400000
1480 11571 1481 1 109.50000 418.400000
1482 11572 1483 1 109.50000 418.400000
1482 11572 1484 1 109.50000 418.400000
1482 11572 1485 1 109.50000 418.400000
1483 11572 1484 1 109.50000 418.400000
1483 11572 1485 1 109.50000 418.400000
1484 11572 1485 1 109.50000 418.400000
1486 11573 1487 1 109.50000 418.400000
1486 11573 1488 1 109.50000 418.400000
1486 11573 1489 1 109.50000 418.400000
1487 11573 1488 1 109.50000 418.400000
1487 11573 1489 1 109.50000 418.400000
1488 11573 1489 1 109.50000 418.400000
1490 11574 1491 1 109.50000 418.400000
1490 11574 1492 1 109.50000 418.400000
1490 11574 1493 1 109.50000 418.400000
1491 11574 1492 1 109.50000 418.400000
1491 11574 1493 1 109.50000 418.400000
1492 11574 1493 1 109.50000 418.400000
1494 11575 1495 1 109.50000 418.400000
1494 11575 1496 1 109.50000 418.400000
1494 11575 1497 1 109.50000 418.400000
1495 11575 1496 1 109.50000 418.400000
1495 11575 1497 1 109.50000 418.400000
1496 11575 1497 1 109.50000 418.400000
1498 11576 1500 1 109.50000 418.400000
1498 11576 1501 1 109.50000 418.400000
1498 11576 3617 1 109.50000 418.400000
1500 11576 1501 1 109.50000 418.400000
1500 11576 3617 1 109.50000 418.400000
1501 11576 3617 1 109.50000 418.400000
1502 11577 1503 1 109.50000 418.400000
1502 11577 1504 1 109.50000 418.400000
1502 11577 1505 1 109.50000 418.400000
1503 11577 1504 1 109.50000 418.400000
1503 11577 1505 1 109.50000 418.400000
1504 11577 1505 1 109.50000 418.400000
1506 11578 1507 1 109.50000 418.400000
1506 11578 1508 1 109.50000 418.400000
1506 11578 1509 1 109.50000 418.400000
1507 11578 1508 1 109.50000 418.400000
1507 11578 1509 1 109.50000 418.400000
1508 11578 1509 1 109.50000 418.400000
1510 11579 1511 1 109.50000 418.400000
1510 11579 1512 1 109.50000 418.400000
1510 11579 1513 1 109.50000 418.400000
1511 11579 1512 1 109.50000 418.400000
1511 11579 1513 1 109.50000 418.400000
1512 11579 1513 1 109.50000 418.400000
1514 11580 1515 1 109.50000 418.400000
1514 11580 1516 1 109.50000 418.400000
1514 11580 1517 1 109.50000 418.400000
1515 11580 1516 1 109.50000 418.400000
1515 11580 1517 1 109.50000 418.400000
1516 11580 1517 1 109.50000 418.400000
1518 11581 1519 1 109.50000 418.400000
1518 11581 1520 1 109.50000 418.400000
1518 11581 1521 1 109.50000 418.400000
1519 11581 1520 1 109.50000 418.400000
1519 11581 1521 1 109.50000 418.400000
1520 11581 1521 1 109.50000 418.400000
1522 11582 1523 1 109.50000 418.400000
1522 11582 1524 1 109.50000 418.400000
1522 11582 1525 1 109.50000 418.400000
1523 11582 1524 1 109.50000 418.400000
1523 11582 1525 1 109.50000 418.400000
1524 11582 1525 1 109.50000 418.400000
1526 11583 1527 1 109.50000 418.400000
1526 11583 1528 1 109.50000 418.400000
1526 11583 1529 1 109.50000 418.400000
1527 11583 1528 1 109.50000 418.400000
1527 11583 1529 1 109.50000 418.400000
1528 11583 1529 1 109.50000 418.400000
1530 11584 1531 1 109.50000 418.400000
1530 11584 1532 1 109.50000 418.400000
1530 11584 1533 1 109.50000 418.400000
1531 11584 1532 1 109.50000 418.400000
1531 11584 1533 1 109.50000 418.400000
1532 11584 1533 1 109.50000 418.400000
1534 11585 1535 1 109.50000 418.400000
1534 11585 1536 1 109.50000 418.400000
1534 11585 1537 1 109.50000 418.400000
1535 11585 1536 1 109.50000 418.400000
1535 11585 1537 1 109.50000 418.400000
1536 11585 1537 1 109.50000 418.400000
1308 11586 1538 1 109.50000 418.400000
1308 11586 1539 1 109.50000 418.400000
1308 11586 1540 1 109.50000 418.400000
1538 11586 1539 1 109.50000 418.400000
1538 11586 1540 1 109.50000 418.400000
1539 11586 1540 1 109.50000 418.400000
1543 11587 1544 1 109.50000 418.400000
1543 11587 1545 1 109.50000 418.400000
1543 11587 1546 1 109.50000 418.400000
1544 11587 1545 1 109.50000 418.400000
1544 11587 1546 1 109.50000 418.400000
1545 11587 1546 1 109.50000 418.400000
1547 11588 1548 1 109.50000 418.400000
1547 11588 1549 1 109.50000 418.400000
1547 11588 1550 1 109.50000 418.400000
1548 11588 1549 1 109.50000 418.400000
1548 11588 1550 1 109.50000 418.400000
1549 11588 1550 1 109.50000 418.400000
1551 11589 1552 1 109.50000 418.400000
1551 11589 1553 1 109.50000 418.400000
1551 11589 1554 1 109.50000 418.400000
1552 11589 1553 1 109.50000 418.400000
1552 11589 1554 1 109.50000 418.400000
1553 11589 1554 1 109.50000 418.400000
1555 11590 1556 1 109.50000 418.400000
1555 11590 1557 1 109.50000 418.400000
1555 11590 1558 1 109.50000 418.400000
1556 11590 1557 1 109.50000 418.400000
1556 11590 1558 1 109.50000 418.400000
1557 11590 1558 1 109.50000 418.400000
1559 11591 1560 1 109.50000 418.400000
1559 11591 1561 1 109.50000 418.400000
1559 11591 1562 1 109.50000 418.400000
1560 11591 1561 1 109.50000 418.400000
1560 11591 1562 1 109.50000 418.400000
1561 11591 1562 1 109.50000 418.400000
1563 11592 1564 1 109.50000 418.400000
1563 11592 1565 1 109.50000 418.400000
1563 11592 1566 1 109.50000 418.400000
1564 11592 1565 1 109.50000 418.400000
1564 11592 1566 1 109.50000 418.400000
1565 11592 1566 1 109.50000 418.400000
1567 11593 1569 1 109.50000 418.400000
1567 11593 1570 1 109.50000 418.400000
1567 11593 3972 1 109.50000 418.400000
1569 11593 1570 1 109.50000 418.400000
1569 11593 3972 1 109.50000 418.400000
1570 11593 3972 1 109.50000 418.400000
1571 11594 1572 1 109.50000 418.400000
1571 11594 1573 1 109.50000 418.400000
1571 11594 1574 1 109.50000 418.400000
1572 11594 1573 1 109.50000 418.400000
1572 11594 1574 1 109.50000 418.400000
1573 11594 1574 1 109.50000 418.400000
1116 11595 1575 1 109.50000 418.400000
1116 11595 1577 1 109.50000 418.400000
1116 11595 1578 1 109.50000 418.400000
1575 11595 1577 1 109.50000 418.400000
1575 11595 1578 1 109.50000 418.400000
1577 11595 1578 1 109.50000 418.400000
1579 11596 1580 1 109.50000 418.400000
1579 11596 1581 1 109.50000 418.400000
1579 11596 1582 1 109.50000 418.400000
1580 11596 1581 1 109.50000 418.400000
1580 11596 1582 1 109.50000 418.400000
1581 11596 1582 1 109.50000 418.400000
208 11597 1583 1 109.50000 418.400000
208 11597 1584 1 109.50000 418.400000
208 11597 1585 1 109.50000 418.400000
1583 11597 1584 1 109.50000 418.400000
1583 11597 1585 1 109.50000 418.400000
1584 11597 1585 1 109.50000 418.400000
1052 11598 1586 1 109.50000 418.400000
1052 11598 1587 1 109.50000 418.400000
1052 11598 10998 1 109.50000 418.400000
1586 11598 1587 1 109.50000 418.400000
1586 11598 10998 1 109.50000 418.400000
1587 11598 10998 1 109.50000 418.400000
1589 11599 1590 1 109.50000 418.400000
1589 11599 1591 1 109.50000 418.400000
1589 11599 1592 1 109.50000 418.400000
1590 11599 1591 1 109.50000 418.400000
1590 11599 1592 1 109.50000 418.400000
1591 11599 1592 1 109.50000 418.400000
9 11600 1593 1 109.50000 418.400000
9 11600 1594 1 109.50000 418.400000
9 11600 1595 1 109.50000 418.400000
1593 11600 1594 1 109.50000 418.400000
1593 11600 1595 1 109.50000 418.400000
1594 11600 1595 1 109.50000 418.400000
226 11601 1596 1 109.50000 418.400000
226 11601 1597 1 109.50000 418.400000
226 11601 1598 1 109.50000 418.400000
1596 11601 1597 1 109.50000 418.400000
1596 11601 1598 1 109.50000 418.400000
1597 11601 1598 1 109.50000 418.400000
946 11602 1599 1 109.50000 418.400000
946 11602 1600 1 109.50000 418.400000
946 11602 1601 1 109.50000 418.400000
1599 11602 1600 1 109.50000 418.400000
1599 11602 1601 1 109.50000 418.400000
1600 11602 1601 1 109.50000 418.400000
113 11603 1602 1 109.50000 418.400000
113 11603 1603 1 109.50000 418.400000
113 11603 1604 1 109.50000 418.400000
1602 11603 1603 1 109.50000 418.400000
1602 11603 1604 1 109.50000 418.400000
1603 11603 1604 1 109.50000 418.400000
1605 11604 1606 1 109.50000 418.400000
1605 11604 1607 1 109.50000 418.400000
1605 11604 1608 1 109.50000 418.400000
1606 11604 1607 1 109.50000 418.400000
1606 11604 1608 1 109.50000 418.400000
1607 11604 1608 1 109.50000 418.400000
1609 11605 1610 1 109.50000 418.400000
1609 11605 1611 1 109.50000 418.400000
1609 11605 7765 1 109.50000 418.400000
1610 11605 1611 1 109.50000 418.400000
1610 11605 7765 1 109.50000 418.400000
1611 11605 7765 1 109.50000 418.400000
1187 11606 1613 1 109.50000 418.400000
1187 11606 1614 1 109.50000 418.400000
1187 11606 1615 1 109.50000 418.400000
1613 11606 1614 1 109.50000 418.400000
1613 11606 1615 1 109.50000 418.400000
1614 11606 1615 1 109.50000 418.400000
345 11607 1616 1 109.50000 418.400000
345 11607 1617 1 109.50000 418.400000
345 11607 1618 1 109.50000 418.400000
1616 11607 1617 1 109.50000 418.400000
1616 11607 1618 1 109.50000 418.400000
1617 11607 1618 1 109.50000 418.400000
1620 11608 1621 1 109.50000 418.400000
1620 11608 1622 1 109.50000 418.400000
1620 11608 2338 1 109.50000 418.400000
1621 11608 1622 1 109.50000 418.400000
1621 11608 2338 1 109.50000 418.400000
1622 11608 2338 1 109.50000 418.400000
1626 11609 1627 1 109.50000 418.400000
1626 11609 1628 1 109.50000 418.400000
1626 11609 1629 1 109.50000 418.400000
1627 11609 1628 1 109.50000 418.400000
1627 11609 1629 1 109.50000 418.400000
1628 11609 1629 1 109.50000 418.400000
1630 11610 1631 1 109.50000 418.400000
1630 11610 1632 1 109.50000 418.400000
1630 11610 8057 1 109.50000 418.400000
1631 11610 1632 1 109.50000 418.400000
1631 11610 8057 1 109.50000 418.400000
1632 11610 8057 1 109.50000 418.400000
1637 11611 1638 1 109.50000 418.400000
1637 11611 1639 1 109.50000 418.400000
1637 11611 1640 1 109.50000 418.400000
1638 11611 1639 1 109.50000 418.400000
1638 11611 1640 1 109.50000 418.400000
1639 11611 1640 1 109.50000 418.400000
79 11612 1641 1 109.50000 418.400000
79 11612 1642 1 109.50000 418.400000
79 11612 1643 1 109.50000 418.400000
1641 11612 1642 1 109.50000 418.400000
1641 11612 1643 1 109.50000 418.400000
1642 11612 1643 1 109.50000 418.400000
328 11613 995 1 109.50000 418.400000
328 11613 3056 1 109.50000 418.400000
328 11613 3577 1 109.50000 418.400000
995 11613 3056 1 109.50000 418.400000
995 11613 3577 1 109.50000 418.400000
3056 11613 3577 1 109.50000 418.400000
1656 11614 1657 1 109.50000 418.400000
1656 11614 1658 1 109.50000 418.400000
1656 11614 1659 1 109.50000 418.400000
1657 11614 1658 1 109.50000 418.400000
1657 11614 1659 1 109.50000 418.400000
1658 11614 1659 1 109.50000 418.400000
1660 11615 1661 1 109.50000 418.400000
1660 11615 1662 1 109.50000 418.400000
1660 11615 1663 1 109.50000 418.400000
1661 11615 1662 1 109.50000 418.400000
1661 11615 1663 1 109.50000 418.400000
1662 11615 1663 1 109.50000 418.400000
1664 11616 1665 1 109.50000 418.400000
1664 11616 1666 1 109.50000 418.400000
1664 11616 1667 1 109.50000 418.400000
1665 11616 1666 1 109.50000 418.400000
1665 11616 1667 1 109.50000 418.400000
1666 11616 1667 1 109.50000 418.400000
1668 11617 1669 1 109.50000 418.400000
1668 11617 1670 1 109.50000 418.400000
1668 11617 1671 1 109.50000 418.400000
1669 11617 1670 1 109.50000 418.400000
1669 11617 1671 1 109.50000 418.400000
1670 11617 1671 1 109.50000 418.400000
646 11618 1619 1 109.50000 418.400000
646 11618 1672 1 109.50000 418.400000
646 11618 1673 1 109.50000 418.400000
1619 11618 1672 1 109.50000 418.400000
1619 11618 1673 1 109.50000 418.400000
1672 11618 1673 1 109.50000 418.400000
1674 11619 1675 1 109.50000 418.400000
1674 11619 1676 1 109.50000 418.400000
1674 11619 1677 1 109.50000 418.400000
1675 11619 1676 1 109.50000 418.400000
1675 11619 1677 1 109.50000 418.400000
1676 11619 1677 1 109.50000 418.400000
153 11620 1678 1 109.50000 418.400000
153 11620 1679 1 109.50000 418.400000
153 11620 1680 1 109.50000 418.400000
1678 11620 1679 1 109.50000 418.400000
1678 11620 1680 1 109.50000 418.400000
1679 11620 1680 1 109.50000 418.400000
1344 11621 1681 1 109.50000 418.400000
1344 11621 1682 1 109.50000 418.400000
1344 11621 1683 1 109.50000 418.400000
1681 11621 1682 1 109.50000 418.400000
1681 11621 1683 1 109.50000 418.400000
1682 11621 1683 1 109.50000 418.400000
1692 11622 1693 1 109.50000 418.400000
1692 11622 1694 1 109.50000 418.400000
1692 11622 1695 1 109.50000 418.400000
1693 11622 1694 1 109.50000 418.400000
1693 11622 1695 1 109.50000 418.400000
1694 11622 1695 1 109.50000 418.400000
1697 11623 1698 1 109.50000 418.400000
1697 11623 1699 1 109.50000 418.400000
1697 11623 4081 1 109.50000 418.400000
1698 11623 1699 1 109.50000 418.400000
1698 11623 4081 1 109.50000 418.400000
1699 11623 4081 1 109.50000 418.400000
1700 11624 1701 1 109.50000 418.400000
1700 11624 1702 1 109.50000 418.400000
1700 11624 1703 1 109.50000 418.400000
1701 11624 1702 1 109.50000 418.400000
1701 11624 1703 1 109.50000 418.400000
1702 11624 1703 1 109.50000 418.400000
1704 11625 1705 1 109.50000 418.400000
1704 11625 1706 1 109.50000 418.400000
1704 11625 1707 1 109.50000 418.400000
1705 11625 1706 1 109.50000 418.400000
1705 11625 1707 1 109.50000 418.400000
1706 11625 1707 1 109.50000 418.400000
811 11626 1708 1 109.50000 418.400000
811 11626 1709 1 109.50000 418.400000
811 11626 1710 1 109.50000 418.400000
1708 11626 1709 1 109.50000 418.400000
1708 11626 1710 1 109.50000 418.400000
1709 11626 1710 1 109.50000 418.400000
250 11627 1711 1 109.50000 418.400000
250 11627 1713 1 109.50000 418.400000
250 11627 1714 1 109.50000 418.400000
1711 11627 1713 1 109.50000 418.400000
1711 11627 1714 1 109.50000 418.400000
1713 11627 1714 1 109.50000 418.400000
560 11628 1715 1 109.50000 418.400000
560 11628 1716 1 109.50000 418.400000
560 11628 1717 1 109.50000 418.400000
1715 11628 1716 1 109.50000 418.400000
1715 11628 1717 1 109.50000 418.400000
1716 11628 1717 1 109.50000 418.400000
1719 11629 1722 1 109.50000 418.400000
1719 11629 5451 1 109.50000 418.400000
1719 11629 5452 1 109.50000 418.400000
1722 11629 5451 1 109.50000 418.400000
1722 11629 5452 1 109.50000 418.400000
5451 11629 5452 1 109.50000 418.400000
1723 11630 1724 1 109.50000 418.400000
1723 11630 1725 1 109.50000 418.400000
1723 11630 1726 1 109.50000 418.400000
1724 11630 1725 1 109.50000 418.400000
1724 11630 1726 1 109.50000 418.400000
1725 11630 1726 1 109.50000 418.400000
973 11631 1728 1 109.50000 418.400000
973 11631 1729 1 109.50000 418.400000
973 11631 1730 1 109.50000 418.400000
1728 11631 1729 1 109.50000 418.400000
1728 11631 1730 1 109.50000 418.400000
1729 11631 1730 1 109.50000 418.400000
1731 11632 1732 1 109.50000 418.400000
1731 11632 1733 1 109.50000 418.400000
1731 11632 1734 1 109.50000 418.400000
1732 11632 1733 1 109.50000 418.400000
1732 11632 1734 1 109.50000 418.400000
1733 11632 1734 1 109.50000 418.400000
1738 11633 1739 1 109.50000 418.400000
1738 11633 8581 1 109.50000 418.400000
1738 11633 10835 1 109.50000 418.400000
1739 11633 8581 1 109.50000 418.400000
1739 11633 10835 1 109.50000 418.400000
8581 11633 10835 1 109.50000 418.400000
1743 11634 1744 1 109.50000 418.400000
1743 11634 1745 1 109.50000 418.400000
1743 11634 1746 1 109.50000 418.400000
1744 11634 1745 1 109.50000 418.400000
1744 11634 1746 1 109.50000 418.400000
1745 11634 1746 1 109.50000 418.400000
691 11635 692 1 109.50000 418.400000
691 11635 1747 1 109.50000 418.400000
691 11635 1748 1 109.50000 418.400000
692 11635 1747 1 109.50000 418.400000
692 11635 1748 1 109.50000 418.400000
1747 11635 1748 1 109.50000 418.400000
1754 11636 1755 1 109.50000 418.400000
1754 11636 1756 1 109.50000 418.400000
1754 11636 1757 1 109.50000 418.400000
1755 11636 1756 1 109.50000 418.400000
1755 11636 1757 1 109.50000 418.400000
1756 11636 1757 1 109.50000 418.400000
1299 11637 1761 1 109.50000 418.400000
1299 11637 1762 1 109.50000 418.400000
1299 11637 1763 1 109.50000 418.400000
1761 11637 1762 1 109.50000 418.400000
1761 11637 1763 1 109.50000 418.400000
1762 11637 1763 1 109.50000 418.400000
1764 11638 1765 1 109.50000 418.400000
1764 11638 1766 1 109.50000 418.400000
1764 11638 1767 1 109.50000 418.400000
1765 11638 1766 1 109.50000 418.400000
1765 11638 1767 1 109.50000 418.400000
1766 11638 1767 1 109.50000 418.400000
1768 11639 1769 1 109.50000 418.400000
1768 11639 1770 1 109.50000 418.400000
1768 11639 1771 1 109.50000 418.400000
1769 11639 1770 1 109.50000 418.400000
1769 11639 1771 1 109.50000 418.400000
1770 11639 1771 1 109.50000 418.400000
1772 11640 1773 1 109.50000 418.400000
1772 11640 1774 1 109.50000 418.400000
1772 11640 1775 1 109.50000 418.400000
1773 11640 1774 1 109.50000 418.400000
1773 11640 1775 1 109.50000 418.400000
1774 11640 1775 1 109.50000 418.400000
1601 11641 1778 1 109.50000 418.400000
1601 11641 1779 1 109.50000 418.400000
1601 11641 1780 1 109.50000 418.400000
1778 11641 1779 1 109.50000 418.400000
1778 11641 1780 1 109.50000 418.400000
1779 11641 1780 1 109.50000 418.400000
1781 11642 1782 1 109.50000 418.400000
1781 11642 1783 1 109.50000 418.400000
1781 11642 1784 1 109.50000 418.400000
1782 11642 1783 1 109.50000 418.400000
1782 11642 1784 1 109.50000 418.400000
1783 11642 1784 1 109.50000 418.400000
640 11643 1785 1 109.50000 418.400000
640 11643 1786 1 109.50000 418.400000
640 11643 1787 1 109.50000 418.400000
1785 11643 1786 1 109.50000 418.400000
1785 11643 1787 1 109.50000 418.400000
1786 11643 1787 1 109.50000 418.400000
1788 11644 1789 1 109.50000 418.400000
1788 11644 1790 1 109.50000 418.400000
1788 11644 1791 1 109.50000 418.400000
1789 11644 1790 1 109.50000 418.400000
1789 11644 1791 1 109.50000 418.400000
1790 11644 1791 1 109.50000 418.400000
1056 11645 1792 1 109.50000 418.400000
1056 11645 1793 1 109.50000 418.400000
1056 11645 1794 1 109.50000 418.400000
1792 11645 1793 1 109.50000 418.400000
1792 11645 1794 1 109.50000 418.400000
1793 11645 1794 1 109.50000 418.400000
1795 11646 1796 1 109.50000 418.400000
1795 11646 1797 1 109.50000 418.400000
1795 11646 1798 1 109.50000 418.400000
1796 11646 1797 1 109.50000 418.400000
1796 11646 1798 1 109.50000 418.400000
1797 11646 1798 1 109.50000 418.400000
1799 11647 1800 1 109.50000 418.400000
1799 11647 1801 1 109.50000 418.400000
1799 11647 1802 1 109.50000 418.400000
1800 11647 1801 1 109.50000 418.400000
1800 11647 1802 1 109.50000 418.400000
1801 11647 1802 1 109.50000 418.400000
1803 11648 1804 1 109.50000 418.400000
1803 11648 1805 1 109.50000 418.400000
1803 11648 1806 1 109.50000 418.400000
1804 11648 1805 1 109.50000 418.400000
1804 11648 1806 1 109.50000 418.400000
1805 11648 1806 1 109.50000 418.400000
1141 11649 1809 1 109.50000 418.400000
1141 11649 1810 1 109.50000 418.400000
1141 11649 1811 1 109.50000 418.400000
1809 11649 1810 1 109.50000 418.400000
1809 11649 1811 1 109.50000 418.400000
1810 11649 1811 1 109.50000 418.400000
1567 11650 1812 1 109.50000 418.400000
1567 11650 1813 1 109.50000 418.400000
1567 11650 1814 1 109.50000 418.400000
1812 11650 1813 1 109.50000 418.400000
1812 11650 1814 1 109.50000 418.400000
1813 11650 1814 1 109.50000 418.400000
1815 11651 1816 1 109.50000 418.400000
1815 11651 1817 1 109.50000 418.400000
1815 11651 1818 1 109.50000 418.400000
1816 11651 1817 1 109.50000 418.400000
1816 11651 1818 1 109.50000 418.400000
1817 11651 1818 1 109.50000 418.400000
59 11652 1819 1 109.50000 418.400000
59 11652 1820 1 109.50000 418.400000
59 11652 1821 1 109.50000 418.400000
1819 11652 1820 1 109.50000 418.400000
1819 11652 1821 1 109.50000 418.400000
1820 11652 1821 1 109.50000 418.400000
118 11653 1822 1 109.50000 418.400000
118 11653 1823 1 109.50000 418.400000
118 11653 1824 1 109.50000 418.400000
1822 11653 1823 1 109.50000 418.400000
1822 11653 1824 1 109.50000 418.400000
1823 11653 1824 1 109.50000 418.400000
1825 11654 1826 1 109.50000 418.400000
1825 11654 1827 1 109.50000 418.400000
1825 11654 1828 1 109.50000 418.400000
1826 11654 1827 1 109.50000 418.400000
1826 11654 1828 1 109.50000 418.400000
1827 11654 1828 1 109.50000 418.400000
1832 11655 1833 1 109.50000 418.400000
1832 11655 1834 1 109.50000 418.400000
1832 11655 1835 1 109.50000 418.400000
1833 11655 1834 1 109.50000 418.400000
1833 11655 1835 1 109.50000 418.400000
1834 11655 1835 1 109.50000 418.400000
116 11656 1836 1 109.50000 418.400000
116 11656 1837 1 109.50000 418.400000
116 11656 1838 1 109.50000 418.400000
1836 11656 1837 1 109.50000 418.400000
1836 11656 1838 1 109.50000 418.400000
1837 11656 1838 1 109.50000 418.400000
1839 11657 1840 1 109.50000 418.400000
1839 11657 1841 1 109.50000 418.400000
1839 11657 1842 1 109.50000 418.400000
1840 11657 1841 1 109.50000 418.400000
1840 11657 1842 1 109.50000 418.400000
1841 11657 1842 1 109.50000 418.400000
1843 11658 1844 1 109.50000 418.400000
1843 11658 1845 1 109.50000 418.400000
1843 11658 1846 1 109.50000 418.400000
1844 11658 1845 1 109.50000 418.400000
1844 11658 1846 1 109.50000 418.400000
1845 11658 1846 1 109.50000 418.400000
1847 11659 1848 1 109.50000 418.400000
1847 11659 1849 1 109.50000 418.400000
1847 11659 1850 1 109.50000 418.400000
1848 11659 1849 1 109.50000 418.400000
1848 11659 1850 1 109.50000 418.400000
1849 11659 1850 1 109.50000 418.400000
1851 11660 1852 1 109.50000 418.400000
1851 11660 1853 1 109.50000 418.400000
1851 11660 1854 1 109.50000 418.400000
1852 11660 1853 1 109.50000 418.400000
1852 11660 1854 1 109.50000 418.400000
1853 11660 1854 1 109.50000 418.400000
126 11661 1855 1 109.50000 418.400000
126 11661 1856 1 109.50000 418.400000
126 11661 1857 1 109.50000 418.400000
1855 11661 1856 1 109.50000 418.400000
1855 11661 1857 1 109.50000 418.400000
1856 11661 1857 1 109.50000 418.400000
1859 11662 1860 1 109.50000 418.400000
1859 11662 1861 1 109.50000 418.400000
1859 11662 1862 1 109.50000 418.400000
1860 11662 1861 1 109.50000 418.400000
1860 11662 1862 1 109.50000 418.400000
1861 11662 1862 1 109.50000 418.400000
1868 11663 1869 1 109.50000 418.400000
1868 11663 1870 1 109.50000 418.400000
1868 11663 1871 1 109.50000 418.400000
1869 11663 1870 1 109.50000 418.400000
1869 11663 1871 1 109.50000 418.400000
1870 11663 1871 1 109.50000 418.400000
1872 11664 1873 1 109.50000 418.400000
1872 11664 1874 1 109.50000 418.400000
1872 11664 1875 1 109.50000 418.400000
1873 11664 1874 1 109.50000 418.400000
1873 11664 1875 1 109.50000 418.400000
1874 11664 1875 1 109.50000 418.400000
1879 11665 1880 1 109.50000 418.400000
1879 11665 1881 1 109.50000 418.400000
1879 11665 1882 1 109.50000 418.400000
1880 11665 1881 1 109.50000 418.400000
1880 11665 1882 1 109.50000 418.400000
1881 11665 1882 1 109.50000 418.400000
128 11666 1883 1 109.50000 418.400000
128 11666 1884 1 109.50000 418.400000
128 11666 1885 1 109.50000 418.400000
1883 11666 1884 1 109.50000 418.400000
1883 11666 1885 1 109.50000 418.400000
1884 11666 1885 1 109.50000 418.400000
1247 11667 1886 1 109.50000 418.400000
1247 11667 1887 1 109.50000 418.400000
1247 11667 1888 1 109.50000 418.400000
1886 11667 1887 1 109.50000 418.400000
1886 11667 1888 1 109.50000 418.400000
1887 11667 1888 1 109.50000 418.400000
1892 11668 1893 1 109.50000 418.400000
1892 11668 1895 1 109.50000 418.400000
1892 11668 6178 1 109.50000 418.400000
1893 11668 1895 1 109.50000 418.400000
1893 11668 6178 1 109.50000 418.400000
1895 11668 6178 1 109.50000 418.400000
1898 11669 1899 1 109.50000 418.400000
1898 11669 1900 1 109.50000 418.400000
1898 11669 1901 1 109.50000 418.400000
1899 11669 1900 1 109.50000 418.400000
1899 11669 1901 1 109.50000 418.400000
1900 11669 1901 1 109.50000 418.400000
155 11670 1903 1 109.50000 418.400000
155 11670 1905 1 109.50000 418.400000
155 11670 5359 1 109.50000 418.400000
1903 11670 1905 1 109.50000 418.400000
1903 11670 5359 1 109.50000 418.400000
1905 11670 5359 1 109.50000 418.400000
1906 11671 1907 1 109.50000 418.400000
1906 11671 1908 1 109.50000 418.400000
1906 11671 1909 1 109.50000 418.400000
1907 11671 1908 1 109.50000 418.400000
1907 11671 1909 1 109.50000 418.400000
1908 11671 1909 1 109.50000 418.400000
1910 11672 1911 1 109.50000 418.400000
1910 11672 1913 1 109.50000 418.400000
1910 11672 8612 1 109.50000 418.400000
1911 11672 1913 1 109.50000 418.400000
1911 11672 8612 1 109.50000 418.400000
1913 11672 8612 1 109.50000 418.400000
1914 11673 1915 1 109.50000 418.400000
1914 11673 1916 1 109.50000 418.400000
1914 11673 1917 1 109.50000 418.400000
1915 11673 1916 1 109.50000 418.400000
1915 11673 1917 1 109.50000 418.400000
1916 11673 1917 1 109.50000 418.400000
396 11674 1416 1 109.50000 418.400000
396 11674 1918 1 109.50000 418.400000
396 11674 1919 1 109.50000 418.400000
1416 11674 1918 1 109.50000 418.400000
1416 11674 1919 1 109.50000 418.400000
1918 11674 1919 1 109.50000 418.400000
1920 11675 1921 1 109.50000 418.400000
1920 11675 1922 1 109.50000 418.400000
1920 11675 1923 1 109.50000 418.400000
1921 11675 1922 1 109.50000 418.400000
1921 11675 1923 1 109.50000 418.400000
1922 11675 1923 1 109.50000 418.400000
1925 11676 1926 1 109.50000 418.400000
1925 11676 7663 1 109.50000 418.400000
1925 11676 9010 1 109.50000 418.400000
1926 11676 7663 1 109.50000 418.400000
1926 11676 9010 1 109.50000 418.400000
7663 11676 9010 1 109.50000 418.400000
1929 11677 1931 1 109.50000 418.400000
1929 11677 5694 1 109.50000 418.400000
1929 11677 6737 1 109.50000 418.400000
1931 11677 5694 1 109.50000 418.400000
1931 11677 6737 1 109.50000 418.400000
5694 11677 6737 1 109.50000 418.400000
1932 11678 1933 1 109.50000 418.400000
1932 11678 1934 1 109.50000 418.400000
1932 11678 1935 1 109.50000 418.400000
1933 11678 1934 1 109.50000 418.400000
1933 11678 1935 1 109.50000 418.400000
1934 11678 1935 1 109.50000 418.400000
1364 11679 1936 1 109.50000 418.400000
1364 11679 1937 1 109.50000 418.400000
1364 11679 1938 1 109.50000 418.400000
1936 11679 1937 1 109.50000 418.400000
1936 11679 1938 1 109.50000 418.400000
1937 11679 1938 1 109.50000 418.400000
924 11680 1940 1 109.50000 418.400000
924 11680 1941 1 109.50000 418.400000
924 11680 1942 1 109.50000 418.400000
1940 11680 1941 1 109.50000 418.400000
1940 11680 1942 1 109.50000 418.400000
1941 11680 1942 1 109.50000 418.400000
1943 11681 1944 1 109.50000 418.400000
1943 11681 1945 1 109.50000 418.400000
1943 11681 5107 1 109.50000 418.400000
1944 11681 1945 1 109.50000 418.400000
1944 11681 5107 1 109.50000 418.400000
1945 11681 5107 1 109.50000 418.400000
375 11682 376 1 109.50000 418.400000
375 11682 378 1 109.50000 418.400000
375 11682 1947 1 109.50000 418.400000
376 11682 378 1 109.50000 418.400000
376 11682 1947 1 109.50000 418.400000
378 11682 1947 1 109.50000 418.400000
143 11683 1949 1 109.50000 418.400000
143 11683 1950 1 109.50000 418.400000
143 11683 1951 1 109.50000 418.400000
1949 11683 1950 1 109.50000 418.400000
1949 11683 1951 1 109.50000 418.400000
1950 11683 1951 1 109.50000 418.400000
1952 11684 1953 1 109.50000 418.400000
1952 11684 1954 1 109.50000 418.400000
1952 11684 1955 1 109.50000 418.400000
1953 11684 1954 1 109.50000 418.400000
1953 11684 1955 1 109.50000 418.400000
1954 11684 1955 1 109.50000 418.400000
1956 11685 1957 1 109.50000 418.400000
1956 11685 1958 1 109.50000 418.400000
1956 11685 1959 1 109.50000 418.400000
1957 11685 1958 1 109.50000 418.400000
1957 11685 1959 1 109.50000 418.400000
1958 11685 1959 1 109.50000 418.400000
1960 11686 1961 1 109.50000 418.400000
1960 11686 1962 1 109.50000 418.400000
1960 11686 1963 1 109.50000 418.400000
1961 11686 1962 1 109.50000 418.400000
1961 11686 1963 1 109.50000 418.400000
1962 11686 1963 1 109.50000 418.400000
1964 11687 1965 1 109.50000 418.400000
1964 11687 1966 1 109.50000 418.400000
1964 11687 1967 1 109.50000 418.400000
1965 11687 1966 1 109.50000 418.400000
1965 11687 1967 1 109.50000 418.400000
1966 11687 1967 1 109.50000 418.400000
677 11688 1968 1 109.50000 418.400000
677 11688 1969 1 109.50000 418.400000
677 11688 1970 1 109.50000 418.400000
1968 11688 1969 1 109.50000 418.400000
1968 11688 1970 1 109.50000 418.400000
1969 11688 1970 1 109.50000 418.400000
1971 11689 1972 1 109.50000 418.400000
1971 11689 1973 1 109.50000 418.400000
1971 11689 9727 1 109.50000 418.400000
1972 11689 1973 1 109.50000 418.400000
1972 11689 9727 1 109.50000 418.400000
1973 11689 9727 1 109.50000 418.400000
1976 11690 1977 1 109.50000 418.400000
1976 11690 1978 1 109.50000 418.400000
1976 11690 7177 1 109.50000 418.400000
1977 11690 1978 1 109.50000 418.400000
1977 11690 7177 1 109.50000 418.400000
1978 11690 7177 1 109.50000 418.400000
1979 11691 1980 1 109.50000 418.400000
1979 11691 1981 1 109.50000 418.400000
1979 11691 1982 1 109.50000 418.400000
1980 11691 1981 1 109.50000 418.400000
1980 11691 1982 1 109.50000 418.400000
1981 11691 1982 1 109.50000 418.400000
1983 11692 1984 1 109.50000 418.400000
1983 11692 1985 1 109.50000 418.400000
1983 11692 1986 1 109.50000 418.400000
1984 11692 1985 1 109.50000 418.400000
1984 11692 1986 1 109.50000 418.400000
1985 11692 1986 1 109.50000 418.400000
1987 11693 1988 1 109.50000 418.400000
1987 11693 1990 1 109.50000 418.400000
1987 11693 10974 1 109.50000 418.400000
1988 11693 1990 1 109.50000 418.400000
1988 11693 10974 1 109.50000 418.400000
1990 11693 10974 1 109.50000 418.400000
1991 11694 1992 1 109.50000 418.400000
1991 11694 1993 1 109.50000 418.400000
1991 11694 1994 1 109.50000 418.400000
1992 11694 1993 1 109.50000 418.400000
1992 11694 1994 1 109.50000 418.400000
1993 11694 1994 1 109.50000 418.400000
1995 11695 1996 1 109.50000 418.400000
1995 11695 1997 1 109.50000 418.400000
1995 11695 1998 1 109.50000 418.400000
1996 11695 1997 1 109.50000 418.400000
1996 11695 1998 1 109.50000 418.400000
1997 11695 1998 1 109.50000 418.400000
1999 11696 2000 1 109.50000 418.400000
1999 11696 2001 1 109.50000 418.400000
1999 11696 2002 1 109.50000 418.400000
2000 11696 2001 1 109.50000 418.400000
2000 11696 2002 1 109.50000 418.400000
2001 11696 2002 1 109.50000 418.400000
501 11697 2003 1 109.50000 418.400000
501 11697 2004 1 109.50000 418.400000
501 11697 2005 1 109.50000 418.400000
2003 11697 2004 1 109.50000 418.400000
2003 11697 2005 1 109.50000 418.400000
2004 11697 2005 1 109.50000 418.400000
1873 11698 2006 1 109.50000 418.400000
1873 11698 2007 1 109.50000 418.400000
1873 11698 2008 1 109.50000 418.400000
2006 11698 2007 1 109.50000 418.400000
2006 11698 2008 1 109.50000 418.400000
2007 11698 2008 1 109.50000 418.400000
2010 11699 2011 1 109.50000 418.400000
2010 11699 2012 1 109.50000 418.400000
2010 11699 2013 1 109.50000 418.400000
2011 11699 2012 1 109.50000 418.400000
2011 11699 2013 1 109.50000 418.400000
2012 11699 2013 1 109.50000 418.400000
2014 11700 2015 1 109.50000 418.400000
2014 11700 2016 1 109.50000 418.400000
2014 11700 2017 1 109.50000 418.400000
2015 11700 2016 1 109.50000 418.400000
2015 11700 2017 1 109.50000 418.400000
2016 11700 2017 1 109.50000 418.400000
1343 11701 2020 1 109.50000 418.400000
1343 11701 2021 1 109.50000 418.400000
1343 11701 2022 1 109.50000 418.400000
2020 11701 2021 1 109.50000 418.400000
2020 11701 2022 1 109.50000 418.400000
2021 11701 2022 1 109.50000 418.400000
2023 11702 2024 1 109.50000 418.400000
2023 11702 2025 1 109.50000 418.400000
2023 11702 2026 1 109.50000 418.400000
2024 11702 2025 1 109.50000 418.400000
2024 11702 2026 1 109.50000 418.400000
2025 11702 2026 1 109.50000 418.400000
2029 11703 2030 1 109.50000 418.400000
2029 11703 2031 1 109.50000 418.400000
2029 11703 2032 1 109.50000 418.400000
2030 11703 2031 1 109.50000 418.400000
2030 11703 2032 1 109.50000 418.400000
2031 11703 2032 1 109.50000 418.400000
2033 11704 2034 1 109.50000 418.400000
2033 11704 2035 1 109.50000 418.400000
2033 11704 2036 1 109.50000 418.400000
2034 11704 2035 1 109.50000 418.400000
2034 11704 2036 1 109.50000 418.400000
2035 11704 2036 1 109.50000 418.400000
2037 11705 2038 1 109.50000 418.400000
2037 11705 2039 1 109.50000 418.400000
2037 11705 2040 1 109.50000 418.400000
2038 11705 2039 1 109.50000 418.400000
2038 11705 2040 1 109.50000 418.400000
2039 11705 2040 1 109.50000 418.400000
2049 11706 2050 1 109.50000 418.400000
2049 11706 2051 1 109.50000 418.400000
2049 11706 2052 1 109.50000 418.400000
2050 11706 2051 1 109.50000 418.400000
2050 11706 2052 1 109.50000 418.400000
2051 11706 2052 1 109.50000 418.400000
290 11707 293 1 109.50000 418.400000
290 11707 2053 1 109.50000 418.400000
290 11707 2054 1 109.50000 418.400000
293 11707 2053 1 109.50000 418.400000
293 11707 2054 1 109.50000 418.400000
2053 11707 2054 1 109.50000 418.400000
2055 11708 2056 1 109.50000 418.400000
2055 11708 2057 1 109.50000 418.400000
2055 11708 2058 1 109.50000 418.400000
2056 11708 2057 1 109.50000 418.400000
2056 11708 2058 1 109.50000 418.400000
2057 11708 2058 1 109.50000 418.400000
393 11709 2059 1 109.50000 418.400000
393 11709 2060 1 109.50000 418.400000
393 11709 2061 1 109.50000 418.400000
2059 11709 2060 1 109.50000 418.400000
2059 11709 2061 1 109.50000 418.400000
2060 11709 2061 1 109.50000 418.400000
2062 11710 2063 1 109.50000 418.400000
2062 11710 2064 1 109.50000 418.400000
2062 11710 2065 1 109.50000 418.400000
2063 11710 2064 1 109.50000 418.400000
2063 11710 2065 1 109.50000 418.400000
2064 11710 2065 1 109.50000 418.400000
1813 11711 2067 1 109.50000 418.400000
1813 11711 2068 1 109.50000 418.400000
1813 11711 2069 1 109.50000 418.400000
2067 11711 2068 1 109.50000 418.400000
2067 11711 2069 1 109.50000 418.400000
2068 11711 2069 1 109.50000 418.400000
971 11712 2053 1 109.50000 418.400000
971 11712 2070 1 109.50000 418.400000
971 11712 2071 1 109.50000 418.400000
2053 11712 2070 1 109.50000 418.400000
2053 11712 2071 1 109.50000 418.400000
2070 11712 2071 1 109.50000 418.400000
806 11713 809 1 109.50000 418.400000
806 11713 2072 1 109.50000 418.400000
806 11713 2073 1 109.50000 418.400000
809 11713 2072 1 109.50000 418.400000
809 11713 2073 1 109.50000 418.400000
2072 11713 2073 1 109.50000 418.400000
2075 11714 2076 1 109.50000 418.400000
2075 11714 2077 1 109.50000 418.400000
2075 11714 2078 1 109.50000 418.400000
2076 11714 2077 1 109.50000 418.400000
2076 11714 2078 1 109.50000 418.400000
2077 11714 2078 1 109.50000 418.400000
456 11715 2079 1 109.50000 418.400000
456 11715 2080 1 109.50000 418.400000
456 11715 2081 1 109.50000 418.400000
2079 11715 2080 1 109.50000 418.400000
2079 11715 2081 1 109.50000 418.400000
2080 11715 2081 1 109.50000 418.400000
254 11716 1979 1 109.50000 418.400000
254 11716 2082 1 109.50000 418.400000
254 11716 2083 1 109.50000 418.400000
1979 11716 2082 1 109.50000 418.400000
1979 11716 2083 1 109.50000 418.400000
2082 11716 2083 1 109.50000 418.400000
2084 11717 2085 1 109.50000 418.400000
2084 11717 2086 1 109.50000 418.400000
2084 11717 2087 1 109.50000 418.400000
2085 11717 2086 1 109.50000 418.400000
2085 11717 2087 1 109.50000 418.400000
2086 11717 2087 1 109.50000 418.400000
2088 11718 2089 1 109.50000 418.400000
2088 11718 2090 1 109.50000 418.400000
2088 11718 2091 1 109.50000 418.400000
2089 11718 2090 1 109.50000 418.400000
2089 11718 2091 1 109.50000 418.400000
2090 11718 2091 1 109.50000 418.400000
2092 11719 2093 1 109.50000 418.400000
2092 11719 2094 1 109.50000 418.400000
2092 11719 2095 1 109.50000 418.400000
2093 11719 2094 1 109.50000 418.400000
2093 11719 2095 1 109.50000 418.400000
2094 11719 2095 1 109.50000 418.400000
854 11720 2098 1 109.50000 418.400000
854 11720 2100 1 109.50000 418.400000
854 11720 7646 1 109.50000 418.400000
2098 11720 2100 1 109.50000 418.400000
2098 11720 7646 1 109.50000 418.400000
2100 11720 7646 1 109.50000 418.400000
1854 11721 2101 1 109.50000 418.400000
1854 11721 2102 1 109.50000 418.400000
1854 11721 2103 1 109.50000 418.400000
2101 11721 2102 1 109.50000 418.400000
2101 11721 2103 1 109.50000 418.400000
2102 11721 2103 1 109.50000 418.400000
1016 11722 2104 1 109.50000 418.400000
1016 11722 2105 1 109.50000 418.400000
1016 11722 2106 1 109.50000 418.400000
2104 11722 2105 1 109.50000 418.400000
2104 11722 2106 1 109.50000 418.400000
2105 11722 2106 1 109.50000 418.400000
2107 11723 2108 1 109.50000 418.400000
2107 11723 11176 1 109.50000 418.400000
2107 11723 11225 1 109.50000 418.400000
2108 11723 11176 1 109.50000 418.400000
2108 11723 11225 1 109.50000 418.400000
11176 11723 11225 1 109.50000 418.400000
2109 11724 2110 1 109.50000 418.400000
2109 11724 2111 1 109.50000 418.400000
2109 11724 2112 1 109.50000 418.400000
2110 11724 2111 1 109.50000 418.400000
2110 11724 2112 1 109.50000 418.400000
2111 11724 2112 1 109.50000 418.400000
2113 11725 2114 1 109.50000 418.400000
2113 11725 2115 1 109.50000 418.400000
2113 11725 2116 1 109.50000 418.400000
2114 11725 2115 1 109.50000 418.400000
2114 11725 2116 1 109.50000 418.400000
2115 11725 2116 1 109.50000 418.400000
2118 11726 2119 1 109.50000 418.400000
2118 11726 2120 1 109.50000 418.400000
2118 11726 3655 1 109.50000 418.400000
2119 11726 2120 1 109.50000 418.400000
2119 11726 3655 1 109.50000 418.400000
2120 11726 3655 1 109.50000 418.400000
2121 11727 2122 1 109.50000 418.400000
2121 11727 2123 1 109.50000 418.400000
2121 11727 2124 1 109.50000 418.400000
2122 11727 2123 1 109.50000 418.400000
2122 11727 2124 1 109.50000 418.400000
2123 11727 2124 1 109.50000 418.400000
528 11728 1346 1 109.50000 418.400000
528 11728 2125 1 109.50000 418.400000
528 11728 2126 1 109.50000 418.400000
1346 11728 2125 1 109.50000 418.400000
1346 11728 2126 1 109.50000 418.400000
2125 11728 2126 1 109.50000 418.400000
2127 11729 2128 1 109.50000 418.400000
2127 11729 2129 1 109.50000 418.400000
2127 11729 2130 1 109.50000 418.400000
2128 11729 2129 1 109.50000 418.400000
2128 11729 2130 1 109.50000 418.400000
2129 11729 2130 1 109.50000 418.400000
1195 11730 1940 1 109.50000 418.400000
1195 11730 2131 1 109.50000 418.400000
1195 11730 2132 1 109.50000 418.400000
1940 11730 2131 1 109.50000 418.400000
1940 11730 2132 1 109.50000 418.400000
2131 11730 2132 1 109.50000 418.400000
2133 11731 2134 1 109.50000 418.400000
2133 11731 2135 1 109.50000 418.400000
2133 11731 2136 1 109.50000 418.400000
2134 11731 2135 1 109.50000 418.400000
2134 11731 2136 1 109.50000 418.400000
2135 11731 2136 1 109.50000 418.400000
985 11732 2137 1 109.50000 418.400000
985 11732 2138 1 109.50000 418.400000
985 11732 2139 1 109.50000 418.400000
2137 11732 2138 1 109.50000 418.400000
2137 11732 2139 1 109.50000 418.400000
2138 11732 2139 1 109.50000 418.400000
2140 11733 2141 1 109.50000 418.400000
2140 11733 2142 1 109.50000 418.400000
2140 11733 2143 1 109.50000 418.400000
2141 11733 2142 1 109.50000 418.400000
2141 11733 2143 1 109.50000 418.400000
2142 11733 2143 1 109.50000 418.400000
2144 11734 2145 1 109.50000 418.400000
2144 11734 2146 1 109.50000 418.400000
2144 11734 2147 1 109.50000 418.400000
2145 11734 2146 1 109.50000 418.400000
2145 11734 2147 1 109.50000 418.400000
2146 11734 2147 1 109.50000 418.400000
1625 11735 2149 1 109.50000 418.400000
1625 11735 2150 1 109.50000 418.400000
1625 11735 2151 1 109.50000 418.400000
2149 11735 2150 1 109.50000 418.400000
2149 11735 2151 1 109.50000 418.400000
2150 11735 2151 1 109.50000 418.400000
2152 11736 2153 1 109.50000 418.400000
2152 11736 2154 1 109.50000 418.400000
2152 11736 2155 1 109.50000 418.400000
2153 11736 2154 1 109.50000 418.400000
2153 11736 2155 1 109.50000 418.400000
2154 11736 2155 1 109.50000 418.400000
927 11737 2156 1 109.50000 418.400000
927 11737 2157 1 109.50000 418.400000
927 11737 2158 1 109.50000 418.400000
2156 11737 2157 1 109.50000 418.400000
2156 11737 2158 1 109.50000 418.400000
2157 11737 2158 1 109.50000 418.400000
2167 11738 2168 1 109.50000 418.400000
2167 11738 2169 1 109.50000 418.400000
2167 11738 2170 1 109.50000 418.400000
2168 11738 2169 1 109.50000 418.400000
2168 11738 2170 1 109.50000 418.400000
2169 11738 2170 1 109.50000 418.400000
2171 11739 2172 1 109.50000 418.400000
2171 11739 2173 1 109.50000 418.400000
2171 11739 2174 1 109.50000 418.400000
2172 11739 2173 1 109.50000 418.400000
2172 11739 2174 1 109.50000 418.400000
2173 11739 2174 1 109.50000 418.400000
2175 11740 2177 1 109.50000 418.400000
2175 11740 2178 1 109.50000 418.400000
2175 11740 5138 1 109.50000 418.400000
2177 11740 2178 1 109.50000 418.400000
2177 11740 5138 1 109.50000 418.400000
2178 11740 5138 1 109.50000 418.400000
656 11741 2179 1 109.50000 418.400000
656 11741 2180 1 109.50000 418.400000
656 11741 9174 1 109.50000 418.400000
2179 11741 2180 1 109.50000 418.400000
2179 11741 9174 1 109.50000 418.400000
2180 11741 9174 1 109.50000 418.400000
2101 11742 2181 1 109.50000 418.400000
2101 11742 2182 1 109.50000 418.400000
2101 11742 2183 1 109.50000 418.400000
2181 11742 2182 1 109.50000 418.400000
2181 11742 2183 1 109.50000 418.400000
2182 11742 2183 1 109.50000 418.400000
2184 11743 2185 1 109.50000 418.400000
2184 11743 2186 1 109.50000 418.400000
2184 11743 2187 1 109.50000 418.400000
2185 11743 2186 1 109.50000 418.400000
2185 11743 2187 1 109.50000 418.400000
2186 11743 2187 1 109.50000 418.400000
2188 11744 2189 1 109.50000 418.400000
2188 11744 2190 1 109.50000 418.400000
2188 11744 2191 1 109.50000 418.400000
2189 11744 2190 1 109.50000 418.400000
2189 11744 2191 1 109.50000 418.400000
2190 11744 2191 1 109.50000 418.400000
2192 11745 2193 1 109.50000 418.400000
2192 11745 2195 1 109.50000 418.400000
2192 11745 10290 1 109.50000 418.400000
2193 11745 2195 1 109.50000 418.400000
2193 11745 10290 1 109.50000 418.400000
2195 11745 10290 1 109.50000 418.400000
2196 11746 2197 1 109.50000 418.400000
2196 11746 2198 1 109.50000 418.400000
2196 11746 2199 1 109.50000 418.400000
2197 11746 2198 1 109.50000 418.400000
2197 11746 2199 1 109.50000 418.400000
2198 11746 2199 1 109.50000 418.400000
2202 11747 2203 1 109.50000 418.400000
2202 11747 2204 1 109.50000 418.400000
2202 11747 2205 1 109.50000 418.400000
2203 11747 2204 1 109.50000 418.400000
2203 11747 2205 1 109.50000 418.400000
2204 11747 2205 1 109.50000 418.400000
1988 11748 2206 1 109.50000 418.400000
1988 11748 2207 1 109.50000 418.400000
1988 11748 2208 1 109.50000 418.400000
2206 11748 2207 1 109.50000 418.400000
2206 11748 2208 1 109.50000 418.400000
2207 11748 2208 1 109.50000 418.400000
1698 11749 2209 1 109.50000 418.400000
1698 11749 2210 1 109.50000 418.400000
1698 11749 2211 1 109.50000 418.400000
2209 11749 2210 1 109.50000 418.400000
2209 11749 2211 1 109.50000 418.400000
2210 11749 2211 1 109.50000 418.400000
2212 11750 2213 1 109.50000 418.400000
2212 11750 2214 1 109.50000 418.400000
2212 11750 2215 1 109.50000 418.400000
2213 11750 2214 1 109.50000 418.400000
2213 11750 2215 1 109.50000 418.400000
2214 11750 2215 1 109.50000 418.400000
2218 11751 2219 1 109.50000 418.400000
2218 11751 2220 1 109.50000 418.400000
2218 11751 2221 1 109.50000 418.400000
2219 11751 2220 1 109.50000 418.400000
2219 11751 2221 1 109.50000 418.400000
2220 11751 2221 1 109.50000 418.400000
2222 11752 2223 1 109.50000 418.400000
2222 11752 2224 1 109.50000 418.400000
2222 11752 2225 1 109.50000 418.400000
2223 11752 2224 1 109.50000 418.400000
2223 11752 2225 1 109.50000 418.400000
2224 11752 2225 1 109.50000 418.400000
2226 11753 2227 1 109.50000 418.400000
2226 11753 2228 1 109.50000 418.400000
2226 11753 2229 1 109.50000 418.400000
2227 11753 2228 1 109.50000 418.400000
2227 11753 2229 1 109.50000 418.400000
2228 11753 2229 1 109.50000 418.400000
2208 11754 2230 1 109.50000 418.400000
2208 11754 2231 1 109.50000 418.400000
2208 11754 2232 1 109.50000 418.400000
2230 11754 2231 1 109.50000 418.400000
2230 11754 2232 1 109.50000 418.400000
2231 11754 2232 1 109.50000 418.400000
2235 11755 2236 1 109.50000 418.400000
2235 11755 2237 1 109.50000 418.400000
2235 11755 2238 1 109.50000 418.400000
2236 11755 2237 1 109.50000 418.400000
2236 11755 2238 1 109.50000 418.400000
2237 11755 2238 1 109.50000 418.400000
1654 11756 2239 1 109.50000 418.400000
1654 11756 2240 1 109.50000 418.400000
1654 11756 2241 1 109.50000 418.400000
2239 11756 2240 1 109.50000 418.400000
2239 11756 2241 1 109.50000 418.400000
2240 11756 2241 1 109.50000 418.400000
2242 11757 2243 1 109.50000 418.400000
2242 11757 2244 1 109.50000 418.400000
2242 11757 2245 1 109.50000 418.400000
2243 11757 2244 1 109.50000 418.400000
2243 11757 2245 1 109.50000 418.400000
2244 11757 2245 1 109.50000 418.400000
2246 11758 2247 1 109.50000 418.400000
2246 11758 2248 1 109.50000 418.400000
2246 11758 2249 1 109.50000 418.400000
2247 11758 2248 1 109.50000 418.400000
2247 11758 2249 1 109.50000 418.400000
2248 11758 2249 1 109.50000 418.400000
1501 11759 2250 1 109.50000 418.400000
1501 11759 2251 1 109.50000 418.400000
1501 11759 2252 1 109.50000 418.400000
2250 11759 2251 1 109.50000 418.400000
2250 11759 2252 1 109.50000 418.400000
2251 11759 2252 1 109.50000 418.400000
2253 11760 2254 1 109.50000 418.400000
2253 11760 2255 1 109.50000 418.400000
2253 11760 2256 1 109.50000 418.400000
2254 11760 2255 1 109.50000 418.400000
2254 11760 2256 1 109.50000 418.400000
2255 11760 2256 1 109.50000 418.400000
2257 11761 2258 1 109.50000 418.400000
2257 11761 2259 1 109.50000 418.400000
2257 11761 2260 1 109.50000 418.400000
2258 11761 2259 1 109.50000 418.400000
2258 11761 2260 1 109.50000 418.400000
2259 11761 2260 1 109.50000 418.400000
2261 11762 2262 1 109.50000 418.400000
2261 11762 2263 1 109.50000 418.400000
2261 11762 2264 1 109.50000 418.400000
2262 11762 2263 1 109.50000 418.400000
2262 11762 2264 1 109.50000 418.400000
2263 11762 2264 1 109.50000 418.400000
2265 11763 2266 1 109.50000 418.400000
2265 11763 2267 1 109.50000 418.400000
2265 11763 2268 1 109.50000 418.400000
2266 11763 2267 1 109.50000 418.400000
2266 11763 2268 1 109.50000 418.400000
2267 11763 2268 1 109.50000 418.400000
2270 11764 2271 1 109.50000 418.400000
2270 11764 2272 1 109.50000 418.400000
2270 11764 10917 1 109.50000 418.400000
2271 11764 2272 1 109.50000 418.400000
2271 11764 10917 1 109.50000 418.400000
2272 11764 10917 1 109.50000 418.400000
2070 11765 2273 1 109.50000 418.400000
2070 11765 2274 1 109.50000 418.400000
2070 11765 2275 1 109.50000 418.400000
2273 11765 2274 1 109.50000 418.400000
2273 11765 2275 1 109.50000 418.400000
2274 11765 2275 1 109.50000 418.400000
2276 11766 2277 1 109.50000 418.400000
2276 11766 2278 1 109.50000 418.400000
2276 11766 2279 1 109.50000 418.400000
2277 11766 2278 1 109.50000 418.400000
2277 11766 2279 1 109.50000 418.400000
2278 11766 2279 1 109.50000 418.400000
2280 11767 2281 1 109.50000 418.400000
2280 11767 2282 1 109.50000 418.400000
2280 11767 2283 1 109.50000 418.400000
2281 11767 2282 1 109.50000 418.400000
2281 11767 2283 1 109.50000 418.400000
2282 11767 2283 1 109.50000 418.400000
2284 11768 2285 1 109.50000 418.400000
2284 11768 2286 1 109.50000 418.400000
2284 11768 2287 1 109.50000 418.400000
2285 11768 2286 1 109.50000 418.400000
2285 11768 2287 1 109.50000 418.400000
2286 11768 2287 1 109.50000 418.400000
1158 11769 2288 1 109.50000 418.400000
1158 11769 2289 1 109.50000 418.400000
1158 11769 2290 1 109.50000 418.400000
2288 11769 2289 1 109.50000 418.400000
2288 11769 2290 1 109.50000 418.400000
2289 11769 2290 1 109.50000 418.400000
2291 11770 2292 1 109.50000 418.400000
2291 11770 2293 1 109.50000 418.400000
2291 11770 2294 1 109.50000 418.400000
2292 11770 2293 1 109.50000 418.400000
2292 11770 2294 1 109.50000 418.400000
2293 11770 2294 1 109.50000 418.400000
2300 11771 2301 1 109.50000 418.400000
2300 11771 2302 1 109.50000 418.400000
2300 11771 2303 1 109.50000 418.400000
2301 11771 2302 1 109.50000 418.400000
2301 11771 2303 1 109.50000 418.400000
2302 11771 2303 1 109.50000 418.400000
2305 11772 2306 1 109.50000 418.400000
2305 11772 2307 1 109.50000 418.400000
2305 11772 2308 1 109.50000 418.400000
2306 11772 2307 1 109.50000 418.400000
2306 11772 2308 1 109.50000 418.400000
2307 11772 2308 1 109.50000 418.400000
2309 11773 2310 1 109.50000 418.400000
2309 11773 2311 1 109.50000 418.400000
2309 11773 2312 1 109.50000 418.400000
2310 11773 2311 1 109.50000 418.400000
2310 11773 2312 1 109.50000 418.400000
2311 11773 2312 1 109.50000 418.400000
2313 11774 2314 1 109.50000 418.400000
2313 11774 2315 1 109.50000 418.400000
2313 11774 2316 1 109.50000 418.400000
2314 11774 2315 1 109.50000 418.400000
2314 11774 2316 1 109.50000 418.400000
2315 11774 2316 1 109.50000 418.400000
2317 11775 2318 1 109.50000 418.400000
2317 11775 2319 1 109.50000 418.400000
2317 11775 2320 1 109.50000 418.400000
2318 11775 2319 1 109.50000 418.400000
2318 11775 2320 1 109.50000 418.400000
2319 11775 2320 1 109.50000 418.400000
1548 11776 2321 1 109.50000 418.400000
1548 11776 2322 1 109.50000 418.400000
1548 11776 2323 1 109.50000 418.400000
2321 11776 2322 1 109.50000 418.400000
2321 11776 2323 1 109.50000 418.400000
2322 11776 2323 1 109.50000 418.400000
2326 11777 2327 1 109.50000 418.400000
2326 11777 2328 1 109.50000 418.400000
2326 11777 2329 1 109.50000 418.400000
2327 11777 2328 1 109.50000 418.400000
2327 11777 2329 1 109.50000 418.400000
2328 11777 2329 1 109.50000 418.400000
581 11778 2330 1 109.50000 418.400000
581 11778 2331 1 109.50000 418.400000
581 11778 5410 1 109.50000 418.400000
2330 11778 2331 1 109.50000 418.400000
2330 11778 5410 1 109.50000 418.400000
2331 11778 5410 1 109.50000 418.400000
2333 11779 2334 1 109.50000 418.400000
2333 11779 2335 1 109.50000 418.400000
2333 11779 2336 1 109.50000 418.400000
2334 11779 2335 1 109.50000 418.400000
2334 11779 2336 1 109.50000 418.400000
2335 11779 2336 1 109.50000 418.400000
2338 11780 2340 1 109.50000 418.400000
2338 11780 6853 1 109.50000 418.400000
2338 11780 10496 1 109.50000 418.400000
2340 11780 6853 1 109.50000 418.400000
2340 11780 10496 1 109.50000 418.400000
6853 11780 10496 1 109.50000 418.400000
1128 11781 2341 1 109.50000 418.400000
1128 11781 2343 1 109.50000 418.400000
1128 11781 4533 1 109.50000 418.400000
2341 11781 2343 1 109.50000 418.400000
2341 11781 4533 1 109.50000 418.400000
2343 11781 4533 1 109.50000 418.400000
2344 11782 2345 1 109.50000 418.400000
2344 11782 2346 1 109.50000 418.400000
2344 11782 2347 1 109.50000 418.400000
2345 11782 2346 1 109.50000 418.400000
2345 11782 2347 1 109.50000 418.400000
2346 11782 2347 1 109.50000 418.400000
2133 11783 2348 1 109.50000 418.400000
2133 11783 2349 1 109.50000 418.400000
2133 11783 9098 1 109.50000 418.400000
2348 11783 2349 1 109.50000 418.400000
2348 11783 9098 1 109.50000 418.400000
2349 11783 9098 1 109.50000 418.400000
1930 11784 2350 1 109.50000 418.400000
1930 11784 2351 1 109.50000 418.400000
1930 11784 2353 1 109.50000 418.400000
2350 11784 2351 1 109.50000 418.400000
2350 11784 2353 1 109.50000 418.400000
2351 11784 2353 1 109.50000 418.400000
2354 11785 2355 1 109.50000 418.400000
2354 11785 2356 1 109.50000 418.400000
2354 11785 2357 1 109.50000 418.400000
2355 11785 2356 1 109.50000 418.400000
2355 11785 2357 1 109.50000 418.400000
2356 11785 2357 1 109.50000 418.400000
2358 11786 2359 1 109.50000 418.400000
2358 11786 2360 1 109.50000 418.400000
2358 11786 2361 1 109.50000 418.400000
2359 11786 2360 1 109.50000 418.400000
2359 11786 2361 1 109.50000 418.400000
2360 11786 2361 1 109.50000 418.400000
2362 11787 2363 1 109.50000 418.400000
2362 11787 2364 1 109.50000 418.400000
2362 11787 2365 1 109.50000 418.400000
2363 11787 2364 1 109.50000 418.400000
2363 11787 2365 1 109.50000 418.400000
2364 11787 2365 1 109.50000 418.400000
2366 11788 2367 1 109.50000 418.400000
2366 11788 2368 1 109.50000 418.400000
2366 11788 2369 1 109.50000 418.400000
2367 11788 2368 1 109.50000 418.400000
2367 11788 2369 1 109.50000 418.400000
2368 11788 2369 1 109.50000 418.400000
2370 11789 2371 1 109.50000 418.400000
2370 11789 2372 1 109.50000 418.400000
2370 11789 2373 1 109.50000 418.400000
2371 11789 2372 1 109.50000 418.400000
2371 11789 2373 1 109.50000 418.400000
2372 11789 2373 1 109.50000 418.400000
2374 11790 2375 1 109.50000 418.400000
2374 11790 2376 1 109.50000 418.400000
2374 11790 2377 1 109.50000 418.400000
2375 11790 2376 1 109.50000 418.400000
2375 11790 2377 1 109.50000 418.400000
2376 11790 2377 1 109.50000 418.400000
2378 11791 2379 1 109.50000 418.400000
2378 11791 2380 1 109.50000 418.400000
2378 11791 2381 1 109.50000 418.400000
2379 11791 2380 1 109.50000 418.400000
2379 11791 2381 1 109.50000 418.400000
2380 11791 2381 1 109.50000 418.400000
2382 11792 2383 1 109.50000 418.400000
2382 11792 2384 1 109.50000 418.400000
2382 11792 2385 1 109.50000 418.400000
2383 11792 2384 1 109.50000 418.400000
2383 11792 2385 1 109.50000 418.400000
2384 11792 2385 1 109.50000 418.400000
2386 11793 2387 1 109.50000 418.400000
2386 11793 2388 1 109.50000 418.400000
2386 11793 2389 1 109.50000 418.400000
2387 11793 2388 1 109.50000 418.400000
2387 11793 2389 1 109.50000 418.400000
2388 11793 2389 1 109.50000 418.400000
2390 11794 2391 1 109.50000 418.400000
2390 11794 2392 1 109.50000 418.400000
2390 11794 2393 1 109.50000 418.400000
2391 11794 2392 1 109.50000 418.400000
2391 11794 2393 1 109.50000 418.400000
2392 11794 2393 1 109.50000 418.400000
2378 11795 2394 1 109.50000 418.400000
2378 11795 2395 1 109.50000 418.400000
2378 11795 2396 1 109.50000 418.400000
2394 11795 2395 1 109.50000 418.400000
2394 11795 2396 1 109.50000 418.400000
2395 11795 2396 1 109.50000 418.400000
2398 11796 2399 1 109.50000 418.400000
2398 11796 2400 1 109.50000 418.400000
2398 11796 4067 1 109.50000 418.400000
2399 11796 2400 1 109.50000 418.400000
2399 11796 4067 1 109.50000 418.400000
2400 11796 4067 1 109.50000 418.400000
2402 11797 2403 1 109.50000 418.400000
2402 11797 2404 1 109.50000 418.400000
2402 11797 2405 1 109.50000 418.400000
2403 11797 2404 1 109.50000 418.400000
2403 11797 2405 1 109.50000 418.400000
2404 11797 2405 1 109.50000 418.400000
2406 11798 2407 1 109.50000 418.400000
2406 11798 2408 1 109.50000 418.400000
2406 11798 2409 1 109.50000 418.400000
2407 11798 2408 1 109.50000 418.400000
2407 11798 2409 1 109.50000 418.400000
2408 11798 2409 1 109.50000 418.400000
487 11799 2410 1 109.50000 418.400000
487 11799 2411 1 109.50000 418.400000
487 11799 2412 1 109.50000 418.400000
2410 11799 2411 1 109.50000 418.400000
2410 11799 2412 1 109.50000 418.400000
2411 11799 2412 1 109.50000 418.400000
2413 11800 2414 1 109.50000 418.400000
2413 11800 2415 1 109.50000 418.400000
2413 11800 2416 1 109.50000 418.400000
2414 11800 2415 1 109.50000 418.400000
2414 11800 2416 1 109.50000 418.400000
2415 11800 2416 1 109.50000 418.400000
2417 11801 2418 1 109.50000 418.400000
2417 11801 2419 1 109.50000 418.400000
2417 11801 2420 1 109.50000 418.400000
2418 11801 2419 1 109.50000 418.400000
2418 11801 2420 1 109.50000 418.400000
2419 11801 2420 1 109.50000 418.400000
2421 11802 2422 1 109.50000 418.400000
2421 11802 2423 1 109.50000 418.400000
2421 11802 2424 1 109.50000 418.400000
2422 11802 2423 1 109.50000 418.400000
2422 11802 2424 1 109.50000 418.400000
2423 11802 2424 1 109.50000 418.400000
2425 11803 2426 1 109.50000 418.400000
2425 11803 2427 1 109.50000 418.400000
2425 11803 2428 1 109.50000 418.400000
2426 11803 2427 1 109.50000 418.400000
2426 11803 2428 1 109.50000 418.400000
2427 11803 2428 1 109.50000 418.400000
2434 11804 2435 1 109.50000 418.400000
2434 11804 2436 1 109.50000 418.400000
2434 11804 2437 1 109.50000 418.400000
2435 11804 2436 1 109.50000 418.400000
2435 11804 2437 1 109.50000 418.400000
2436 11804 2437 1 109.50000 418.400000
2438 11805 2439 1 109.50000 418.400000
2438 11805 2440 1 109.50000 418.400000
2438 11805 2441 1 109.50000 418.400000
2439 11805 2440 1 109.50000 418.400000
2439 11805 2441 1 109.50000 418.400000
2440 11805 2441 1 109.50000 418.400000
2442 11806 2443 1 109.50000 418.400000
2442 11806 2444 1 109.50000 418.400000
2442 11806 2445 1 109.50000 418.400000
2443 11806 2444 1 109.50000 418.400000
2443 11806 2445 1 109.50000 418.400000
2444 11806 2445 1 109.50000 418.400000
2446 11807 2447 1 109.50000 418.400000
2446 11807 2448 1 109.50000 418.400000
2446 11807 2449 1 109.50000 418.400000
2447 11807 2448 1 109.50000 418.400000
2447 11807 2449 1 109.50000 418.400000
2448 11807 2449 1 109.50000 418.400000
1576 11808 2453 1 109.50000 418.400000
1576 11808 2454 1 109.50000 418.400000
1576 11808 2455 1 109.50000 418.400000
2453 11808 2454 1 109.50000 418.400000
2453 11808 2455 1 109.50000 418.400000
2454 11808 2455 1 109.50000 418.400000
2458 11809 2459 1 109.50000 418.400000
2458 11809 2460 1 109.50000 418.400000
2458 11809 2461 1 109.50000 418.400000
2459 11809 2460 1 109.50000 418.400000
2459 11809 2461 1 109.50000 418.400000
2460 11809 2461 1 109.50000 418.400000
2464 11810 2465 1 109.50000 418.400000
2464 11810 2466 1 109.50000 418.400000
2464 11810 2467 1 109.50000 418.400000
2465 11810 2466 1 109.50000 418.400000
2465 11810 2467 1 109.50000 418.400000
2466 11810 2467 1 109.50000 418.400000
2468 11811 2469 1 109.50000 418.400000
2468 11811 2470 1 109.50000 418.400000
2468 11811 2471 1 109.50000 418.400000
2469 11811 2470 1 109.50000 418.400000
2469 11811 2471 1 109.50000 418.400000
2470 11811 2471 1 109.50000 418.400000
2472 11812 2473 1 109.50000 418.400000
2472 11812 2474 1 109.50000 418.400000
2472 11812 2475 1 109.50000 418.400000
2473 11812 2474 1 109.50000 418.400000
2473 11812 2475 1 109.50000 418.400000
2474 11812 2475 1 109.50000 418.400000
2476 11813 2477 1 109.50000 418.400000
2476 11813 2478 1 109.50000 418.400000
2476 11813 10206 1 109.50000 418.400000
2477 11813 2478 1 109.50000 418.400000
2477 11813 10206 1 109.50000 418.400000
2478 11813 10206 1 109.50000 418.400000
280 11814 2480 1 109.50000 418.400000
280 11814 2481 1 109.50000 418.400000
280 11814 2482 1 109.50000 418.400000
2480 11814 2481 1 109.50000 418.400000
2480 11814 2482 1 109.50000 418.400000
2481 11814 2482 1 109.50000 418.400000
2486 11815 2487 1 109.50000 418.400000
2486 11815 2488 1 109.50000 418.400000
2486 11815 2489 1 109.50000 418.400000
2487 11815 2488 1 109.50000 418.400000
2487 11815 2489 1 109.50000 418.400000
2488 11815 2489 1 109.50000 418.400000
2496 11816 2497 1 109.50000 418.400000
2496 11816 2498 1 109.50000 418.400000
2496 11816 2499 1 109.50000 418.400000
2497 11816 2498 1 109.50000 418.400000
2497 11816 2499 1 109.50000 418.400000
2498 11816 2499 1 109.50000 418.400000
1324 11817 2502 1 109.50000 418.400000
1324 11817 2503 1 109.50000 418.400000
1324 11817 2504 1 109.50000 418.400000
2502 11817 2503 1 109.50000 418.400000
2502 11817 2504 1 109.50000 418.400000
2503 11817 2504 1 109.50000 418.400000
2508 11818 2509 1 109.50000 418.400000
2508 11818 2510 1 109.50000 418.400000
2508 11818 2511 1 109.50000 418.400000
2509 11818 2510 1 109.50000 418.400000
2509 11818 2511 1 109.50000 418.400000
2510 11818 2511 1 109.50000 418.400000
2512 11819 2513 1 109.50000 418.400000
2512 11819 2514 1 109.50000 418.400000
2512 11819 2515 1 109.50000 418.400000
2513 11819 2514 1 109.50000 418.400000
2513 11819 2515 1 109.50000 418.400000
2514 11819 2515 1 109.50000 418.400000
2516 11820 2517 1 109.50000 418.400000
2516 11820 2518 1 109.50000 418.400000
2516 11820 2519 1 109.50000 418.400000
2517 11820 2518 1 109.50000 418.400000
2517 11820 2519 1 109.50000 418.400000
2518 11820 2519 1 109.50000 418.400000
2520 11821 2521 1 109.50000 418.400000
2520 11821 2522 1 109.50000 418.400000
2520 11821 2523 1 109.50000 418.400000
2521 11821 2522 1 109.50000 418.400000
2521 11821 2523 1 109.50000 418.400000
2522 11821 2523 1 109.50000 418.400000
2524 11822 2525 1 109.50000 418.400000
2524 11822 2526 1 109.50000 418.400000
2524 11822 2527 1 109.50000 418.400000
2525 11822 2526 1 109.50000 418.400000
2525 11822 2527 1 109.50000 418.400000
2526 11822 2527 1 109.50000 418.400000
2528 11823 2529 1 109.50000 418.400000
2528 11823 2530 1 109.50000 418.400000
2528 11823 2531 1 109.50000 418.400000
2529 11823 2530 1 109.50000 418.400000
2529 11823 2531 1 109.50000 418.400000
2530 11823 2531 1 109.50000 418.400000
2532 11824 2533 1 109.50000 418.400000
2532 11824 2534 1 109.50000 418.400000
2532 11824 2535 1 109.50000 418.400000
2533 11824 2534 1 109.50000 418.400000
2533 11824 2535 1 109.50000 418.400000
2534 11824 2535 1 109.50000 418.400000
2468 11825 2536 1 109.50000 418.400000
2468 11825 2537 1 109.50000 418.400000
2468 11825 2538 1 109.50000 418.400000
2536 11825 2537 1 109.50000 418.400000
2536 11825 2538 1 109.50000 418.400000
2537 11825 2538 1 109.50000 418.400000
2328 11826 2539 1 109.50000 418.400000
2328 11826 2540 1 109.50000 418.400000
2328 11826 2541 1 109.50000 418.400000
2539 11826 2540 1 109.50000 418.400000
2539 11826 2541 1 109.50000 418.400000
2540 11826 2541 1 109.50000 418.400000
230 11827 2542 1 109.50000 418.400000
230 11827 2543 1 109.50000 418.400000
230 11827 2544 1 109.50000 418.400000
2542 11827 2543 1 109.50000 418.400000
2542 11827 2544 1 109.50000 418.400000
2543 11827 2544 1 109.50000 418.400000
2545 11828 2546 1 109.50000 418.400000
2545 11828 2547 1 109.50000 418.400000
2545 11828 2548 1 109.50000 418.400000
2546 11828 2547 1 109.50000 418.400000
2546 11828 2548 1 109.50000 418.400000
2547 11828 2548 1 109.50000 418.400000
2549 11829 2550 1 109.50000 418.400000
2549 11829 2551 1 109.50000 418.400000
2549 11829 2552 1 109.50000 418.400000
2550 11829 2551 1 109.50000 418.400000
2550 11829 2552 1 109.50000 418.400000
2551 11829 2552 1 109.50000 418.400000
2553 11830 2554 1 109.50000 418.400000
2553 11830 2555 1 109.50000 418.400000
2553 11830 2556 1 109.50000 418.400000
2554 11830 2555 1 109.50000 418.400000
2554 11830 2556 1 109.50000 418.400000
2555 11830 2556 1 109.50000 418.400000
1964 11831 2561 1 109.50000 418.400000
1964 11831 2562 1 109.50000 418.400000
1964 11831 2563 1 109.50000 418.400000
2561 11831 2562 1 109.50000 418.400000
2561 11831 2563 1 109.50000 418.400000
2562 11831 2563 1 109.50000 418.400000
690 11832 2564 1 109.50000 418.400000
690 11832 2565 1 109.50000 418.400000
690 11832 2566 1 109.50000 418.400000
2564 11832 2565 1 109.50000 418.400000
2564 11832 2566 1 109.50000 418.400000
2565 11832 2566 1 109.50000 418.400000
2567 11833 2568 1 109.50000 418.400000
2567 11833 2569 1 109.50000 418.400000
2567 11833 2570 1 109.50000 418.400000
2568 11833 2569 1 109.50000 418.400000
2568 11833 2570 1 109.50000 418.400000
2569 11833 2570 1 109.50000 418.400000
2400 11834 2571 1 109.50000 418.400000
2400 11834 2572 1 109.50000 418.400000
2400 11834 3759 1 109.50000 418.400000
2571 11834 2572 1 109.50000 418.400000
2571 11834 3759 1 109.50000 418.400000
2572 11834 3759 1 109.50000 418.400000
2574 11835 2575 1 109.50000 418.400000
2574 11835 2576 1 109.50000 418.400000
2574 11835 2577 1 109.50000 418.400000
2575 11835 2576 1 109.50000 418.400000
2575 11835 2577 1 109.50000 418.400000
2576 11835 2577 1 109.50000 418.400000
1898 11836 2578 1 109.50000 418.400000
1898 11836 2579 1 109.50000 418.400000
1898 11836 2580 1 109.50000 418.400000
2578 11836 2579 1 109.50000 418.400000
2578 11836 2580 1 109.50000 418.400000
2579 11836 2580 1 109.50000 418.400000
2584 11837 2585 1 109.50000 418.400000
2584 11837 2586 1 109.50000 418.400000
2584 11837 6496 1 109.50000 418.400000
2585 11837 2586 1 109.50000 418.400000
2585 11837 6496 1 109.50000 418.400000
2586 11837 6496 1 109.50000 418.400000
2589 11838 2590 1 109.50000 418.400000
2589 11838 2591 1 109.50000 418.400000
2589 11838 11185 1 109.50000 418.400000
2590 11838 2591 1 109.50000 418.400000
2590 11838 11185 1 109.50000 418.400000
2591 11838 11185 1 109.50000 418.400000
847 11839 2592 1 109.50000 418.400000
847 11839 2593 1 109.50000 418.400000
847 11839 2594 1 109.50000 418.400000
2592 11839 2593 1 109.50000 418.400000
2592 11839 2594 1 109.50000 418.400000
2593 11839 2594 1 109.50000 418.400000
628 11840 2595 1 109.50000 418.400000
628 11840 2596 1 109.50000 418.400000
628 11840 2597 1 109.50000 418.400000
2595 11840 2596 1 109.50000 418.400000
2595 11840 2597 1 109.50000 418.400000
2596 11840 2597 1 109.50000 418.400000
2598 11841 2599 1 109.50000 418.400000
2598 11841 2600 1 109.50000 418.400000
2598 11841 2601 1 109.50000 418.400000
2599 11841 2600 1 109.50000 418.400000
2599 11841 2601 1 109.50000 418.400000
2600 11841 2601 1 109.50000 418.400000
895 11842 2602 1 109.50000 418.400000
895 11842 2603 1 109.50000 418.400000
895 11842 11203 1 109.50000 418.400000
2602 11842 2603 1 109.50000 418.400000
2602 11842 11203 1 109.50000 418.400000
2603 11842 11203 1 109.50000 418.400000
2604 11843 2989 1 109.50000 418.400000
2604 11843 2990 1 109.50000 418.400000
2604 11843 9329 1 109.50000 418.400000
2989 11843 2990 1 109.50000 418.400000
2989 11843 9329 1 109.50000 418.400000
2990 11843 9329 1 109.50000 418.400000
2606 11844 2608 1 109.50000 418.400000
2606 11844 2609 1 109.50000 418.400000
2606 11844 9020 1 109.50000 418.400000
2608 11844 2609 1 109.50000 418.400000
2608 11844 9020 1 109.50000 418.400000
2609 11844 9020 1 109.50000 418.400000
2610 11845 2611 1 109.50000 418.400000
2610 11845 2612 1 109.50000 418.400000
2610 11845 7265 1 109.50000 418.400000
2611 11845 2612 1 109.50000 418.400000
2611 11845 7265 1 109.50000 418.400000
2612 11845 7265 1 109.50000 418.400000
1298 11846 2613 1 109.50000 418.400000
1298 11846 2614 1 109.50000 418.400000
1298 11846 2615 1 109.50000 418.400000
2613 11846 2614 1 109.50000 418.400000
2613 11846 2615 1 109.50000 418.400000
2614 11846 2615 1 109.50000 418.400000
1313 11847 2616 1 109.50000 418.400000
1313 11847 2617 1 109.50000 418.400000
1313 11847 2618 1 109.50000 418.400000
2616 11847 2617 1 109.50000 418.400000
2616 11847 2618 1 109.50000 418.400000
2617 11847 2618 1 109.50000 418.400000
2619 11848 2620 1 109.50000 418.400000
2619 11848 2621 1 109.50000 418.400000
2619 11848 2622 1 109.50000 418.400000
2620 11848 2621 1 109.50000 418.400000
2620 11848 2622 1 109.50000 418.400000
2621 11848 2622 1 109.50000 418.400000
2626 11849 2627 1 109.50000 418.400000
2626 11849 2628 1 109.50000 418.400000
2626 11849 6785 1 109.50000 418.400000
2627 11849 2628 1 109.50000 418.400000
2627 11849 6785 1 109.50000 418.400000
2628 11849 6785 1 109.50000 418.400000
2496 11850 2629 1 109.50000 418.400000
2496 11850 2630 1 109.50000 418.400000
2496 11850 2631 1 109.50000 418.400000
2629 11850 2630 1 109.50000 418.400000
2629 11850 2631 1 109.50000 418.400000
2630 11850 2631 1 109.50000 418.400000
2632 11851 2633 1 109.50000 418.400000
2632 11851 2634 1 109.50000 418.400000
2632 11851 2635 1 109.50000 418.400000
2633 11851 2634 1 109.50000 418.400000
2633 11851 2635 1 109.50000 418.400000
2634 11851 2635 1 109.50000 418.400000
2636 11852 2637 1 109.50000 418.400000
2636 11852 2638 1 109.50000 418.400000
2636 11852 2639 1 109.50000 418.400000
2637 11852 2638 1 109.50000 418.400000
2637 11852 2639 1 109.50000 418.400000
2638 11852 2639 1 109.50000 418.400000
2640 11853 2641 1 109.50000 418.400000
2640 11853 2642 1 109.50000 418.400000
2640 11853 2643 1 109.50000 418.400000
2641 11853 2642 1 109.50000 418.400000
2641 11853 2643 1 109.50000 418.400000
2642 11853 2643 1 109.50000 418.400000
1434 11854 2644 1 109.50000 418.400000
1434 11854 2645 1 109.50000 418.400000
1434 11854 2646 1 109.50000 418.400000
2644 11854 2645 1 109.50000 418.400000
2644 11854 2646 1 109.50000 418.400000
2645 11854 2646 1 109.50000 418.400000
2647 11855 2648 1 109.50000 418.400000
2647 11855 2650 1 109.50000 418.400000
2647 11855 11078 1 109.50000 418.400000
2648 11855 2650 1 109.50000 418.400000
2648 11855 11078 1 109.50000 418.400000
2650 11855 11078 1 109.50000 418.400000
2654 11856 2655 1 109.50000 418.400000
2654 11856 2656 1 109.50000 418.400000
2654 11856 2657 1 109.50000 418.400000
2655 11856 2656 1 109.50000 418.400000
2655 11856 2657 1 109.50000 418.400000
2656 11856 2657 1 109.50000 418.400000
875 11857 1005 1 109.50000 418.400000
875 11857 2658 1 109.50000 418.400000
875 11857 2659 1 109.50000 418.400000
1005 11857 2658 1 109.50000 418.400000
1005 11857 2659 1 109.50000 418.400000
2658 11857 2659 1 109.50000 418.400000
2660 11858 2661 1 109.50000 418.400000
2660 11858 2662 1 109.50000 418.400000
2660 11858 2663 1 109.50000 418.400000
2661 11858 2662 1 109.50000 418.400000
2661 11858 2663 1 109.50000 418.400000
2662 11858 2663 1 109.50000 418.400000
756 11859 1161 1 109.50000 418.400000
756 11859 2664 1 109.50000 418.400000
756 11859 2665 1 109.50000 418.400000
1161 11859 2664 1 109.50000 418.400000
1161 11859 2665 1 109.50000 418.400000
2664 11859 2665 1 109.50000 418.400000
695 11860 769 1 109.50000 418.400000
695 11860 2666 1 109.50000 418.400000
695 11860 2667 1 109.50000 418.400000
769 11860 2666 1 109.50000 418.400000
769 11860 2667 1 109.50000 418.400000
2666 11860 2667 1 109.50000 418.400000
2668 11861 2669 1 109.50000 418.400000
2668 11861 2670 1 109.50000 418.400000
2668 11861 2671 1 109.50000 418.400000
2669 11861 2670 1 109.50000 418.400000
2669 11861 2671 1 109.50000 418.400000
2670 11861 2671 1 109.50000 418.400000
2672 11862 2673 1 109.50000 418.400000
2672 11862 2674 1 109.50000 418.400000
2672 11862 2675 1 109.50000 418.400000
2673 11862 2674 1 109.50000 418.400000
2673 11862 2675 1 109.50000 418.400000
2674 11862 2675 1 109.50000 418.400000
2676 11863 2677 1 109.50000 418.400000
2676 11863 2678 1 109.50000 418.400000
2676 11863 2679 1 109.50000 418.400000
2677 11863 2678 1 109.50000 418.400000
2677 11863 2679 1 109.50000 418.400000
2678 11863 2679 1 109.50000 418.400000
2680 11864 2681 1 109.50000 418.400000
2680 11864 2682 1 109.50000 418.400000
2680 11864 3309 1 109.50000 418.400000
2681 11864 2682 1 109.50000 418.400000
2681 11864 3309 1 109.50000 418.400000
2682 11864 3309 1 109.50000 418.400000
2684 11865 2685 1 109.50000 418.400000
2684 11865 2686 1 109.50000 418.400000
2684 11865 2687 1 109.50000 418.400000
2685 11865 2686 1 109.50000 418.400000
2685 11865 2687 1 109.50000 418.400000
2686 11865 2687 1 109.50000 418.400000
2688 11866 2689 1 109.50000 418.400000
2688 11866 2690 1 109.50000 418.400000
2688 11866 2691 1 109.50000 418.400000
2689 11866 2690 1 109.50000 418.400000
2689 11866 2691 1 109.50000 418.400000
2690 11866 2691 1 109.50000 418.400000
2692 11867 2693 1 109.50000 418.400000
2692 11867 2694 1 109.50000 418.400000
2692 11867 2695 1 109.50000 418.400000
2693 11867 2694 1 109.50000 418.400000
2693 11867 2695 1 109.50000 418.400000
2694 11867 2695 1 109.50000 418.400000
2583 11868 2699 1 109.50000 418.400000
2583 11868 2700 1 109.50000 418.400000
2583 11868 2701 1 109.50000 418.400000
2699 11868 2700 1 109.50000 418.400000
2699 11868 2701 1 109.50000 418.400000
2700 11868 2701 1 109.50000 418.400000
2702 11869 2703 1 109.50000 418.400000
2702 11869 2704 1 109.50000 418.400000
2702 11869 2705 1 109.50000 418.400000
2703 11869 2704 1 109.50000 418.400000
2703 11869 2705 1 109.50000 418.400000
2704 11869 2705 1 109.50000 418.400000
2428 11870 2706 1 109.50000 418.400000
2428 11870 2707 1 109.50000 418.400000
2428 11870 2708 1 109.50000 418.400000
2706 11870 2707 1 109.50000 418.400000
2706 11870 2708 1 109.50000 418.400000
2707 11870 2708 1 109.50000 418.400000
2709 11871 2710 1 109.50000 418.400000
2709 11871 2711 1 109.50000 418.400000
2709 11871 2712 1 109.50000 418.400000
2710 11871 2711 1 109.50000 418.400000
2710 11871 2712 1 109.50000 418.400000
2711 11871 2712 1 109.50000 418.400000
2713 11872 2714 1 109.50000 418.400000
2713 11872 2715 1 109.50000 418.400000
2713 11872 2716 1 109.50000 418.400000
2714 11872 2715 1 109.50000 418.400000
2714 11872 2716 1 109.50000 418.400000
2715 11872 2716 1 109.50000 418.400000
2717 11873 2718 1 109.50000 418.400000
2717 11873 2719 1 109.50000 418.400000
2717 11873 2720 1 109.50000 418.400000
2718 11873 2719 1 109.50000 418.400000
2718 11873 2720 1 109.50000 418.400000
2719 11873 2720 1 109.50000 418.400000
2721 11874 2722 1 109.50000 418.400000
2721 11874 2723 1 109.50000 418.400000
2721 11874 2724 1 109.50000 418.400000
2722 11874 2723 1 109.50000 418.400000
2722 11874 2724 1 109.50000 418.400000
2723 11874 2724 1 109.50000 418.400000
2725 11875 2726 1 109.50000 418.400000
2725 11875 2727 1 109.50000 418.400000
2725 11875 2728 1 109.50000 418.400000
2726 11875 2727 1 109.50000 418.400000
2726 11875 2728 1 109.50000 418.400000
2727 11875 2728 1 109.50000 418.400000
828 11876 2732 1 109.50000 418.400000
828 11876 2733 1 109.50000 418.400000
828 11876 2734 1 109.50000 418.400000
2732 11876 2733 1 109.50000 418.400000
2732 11876 2734 1 109.50000 418.400000
2733 11876 2734 1 109.50000 418.400000
982 11877 2735 1 109.50000 418.400000
982 11877 2736 1 109.50000 418.400000
982 11877 2737 1 109.50000 418.400000
2735 11877 2736 1 109.50000 418.400000
2735 11877 2737 1 109.50000 418.400000
2736 11877 2737 1 109.50000 418.400000
2738 11878 2739 1 109.50000 418.400000
2738 11878 2740 1 109.50000 418.400000
2738 11878 2741 1 109.50000 418.400000
2739 11878 2740 1 109.50000 418.400000
2739 11878 2741 1 109.50000 418.400000
2740 11878 2741 1 109.50000 418.400000
2742 11879 2743 1 109.50000 418.400000
2742 11879 2744 1 109.50000 418.400000
2742 11879 2745 1 109.50000 418.400000
2743 11879 2744 1 109.50000 418.400000
2743 11879 2745 1 109.50000 418.400000
2744 11879 2745 1 109.50000 418.400000
1520 11880 2746 1 109.50000 418.400000
1520 11880 2747 1 109.50000 418.400000
1520 11880 2748 1 109.50000 418.400000
2746 11880 2747 1 109.50000 418.400000
2746 11880 2748 1 109.50000 418.400000
2747 11880 2748 1 109.50000 418.400000
2749 11881 2750 1 109.50000 418.400000
2749 11881 2751 1 109.50000 418.400000
2749 11881 2752 1 109.50000 418.400000
2750 11881 2751 1 109.50000 418.400000
2750 11881 2752 1 109.50000 418.400000
2751 11881 2752 1 109.50000 418.400000
2753 11882 2755 1 109.50000 418.400000
2753 11882 2756 1 109.50000 418.400000
2753 11882 5577 1 109.50000 418.400000
2755 11882 2756 1 109.50000 418.400000
2755 11882 5577 1 109.50000 418.400000
2756 11882 5577 1 109.50000 418.400000
2757 11883 2758 1 109.50000 418.400000
2757 11883 2759 1 109.50000 418.400000
2757 11883 2760 1 109.50000 418.400000
2758 11883 2759 1 109.50000 418.400000
2758 11883 2760 1 109.50000 418.400000
2759 11883 2760 1 109.50000 418.400000
1819 11884 2761 1 109.50000 418.400000
1819 11884 2762 1 109.50000 418.400000
1819 11884 2763 1 109.50000 418.400000
2761 11884 2762 1 109.50000 418.400000
2761 11884 2763 1 109.50000 418.400000
2762 11884 2763 1 109.50000 418.400000
2764 11885 2765 1 109.50000 418.400000
2764 11885 2766 1 109.50000 418.400000
2764 11885 2767 1 109.50000 418.400000
2765 11885 2766 1 109.50000 418.400000
2765 11885 2767 1 109.50000 418.400000
2766 11885 2767 1 109.50000 418.400000
171 11886 2768 1 109.50000 418.400000
171 11886 2769 1 109.50000 418.400000
171 11886 2770 1 109.50000 418.400000
2768 11886 2769 1 109.50000 418.400000
2768 11886 2770 1 109.50000 418.400000
2769 11886 2770 1 109.50000 418.400000
2771 11887 2773 1 109.50000 418.400000
2771 11887 2774 1 109.50000 418.400000
2771 11887 6883 1 109.50000 418.400000
2773 11887 2774 1 109.50000 418.400000
2773 11887 6883 1 109.50000 418.400000
2774 11887 6883 1 109.50000 418.400000
734 11888 2777 1 109.50000 418.400000
734 11888 2778 1 109.50000 418.400000
734 11888 2779 1 109.50000 418.400000
2777 11888 2778 1 109.50000 418.400000
2777 11888 2779 1 109.50000 418.400000
2778 11888 2779 1 109.50000 418.400000
2780 11889 2781 1 109.50000 418.400000
2780 11889 2782 1 109.50000 418.400000
2780 11889 2783 1 109.50000 418.400000
2781 11889 2782 1 109.50000 418.400000
2781 11889 2783 1 109.50000 418.400000
2782 11889 2783 1 109.50000 418.400000
2784 11890 2785 1 109.50000 418.400000
2784 11890 2786 1 109.50000 418.400000
2784 11890 2787 1 109.50000 418.400000
2785 11890 2786 1 109.50000 418.400000
2785 11890 2787 1 109.50000 418.400000
2786 11890 2787 1 109.50000 418.400000
911 11891 2788 1 109.50000 418.400000
911 11891 2789 1 109.50000 418.400000
911 11891 2790 1 109.50000 418.400000
2788 11891 2789 1 109.50000 418.400000
2788 11891 2790 1 109.50000 418.400000
2789 11891 2790 1 109.50000 418.400000
301 11892 2791 1 109.50000 418.400000
301 11892 2792 1 109.50000 418.400000
301 11892 4806 1 109.50000 418.400000
2791 11892 2792 1 109.50000 418.400000
2791 11892 4806 1 109.50000 418.400000
2792 11892 4806 1 109.50000 418.400000
2794 11893 2795 1 109.50000 418.400000
2794 11893 2796 1 109.50000 418.400000
2794 11893 10676 1 109.50000 418.400000
2795 11893 2796 1 109.50000 418.400000
2795 11893 10676 1 109.50000 418.400000
2796 11893 10676 1 109.50000 418.400000
191 11894 322 1 109.50000 418.400000
191 11894 2798 1 109.50000 418.400000
191 11894 2799 1 109.50000 418.400000
322 11894 2798 1 109.50000 418.400000
322 11894 2799 1 109.50000 418.400000
2798 11894 2799 1 109.50000 418.400000
699 11895 2800 1 109.50000 418.400000
699 11895 2801 1 109.50000 418.400000
699 11895 8976 1 109.50000 418.400000
2800 11895 2801 1 109.50000 418.400000
2800 11895 8976 1 109.50000 418.400000
2801 11895 8976 1 109.50000 418.400000
2058 11896 2803 1 109.50000 418.400000
2058 11896 2804 1 109.50000 418.400000
2058 11896 2805 1 109.50000 418.400000
2803 11896 2804 1 109.50000 418.400000
2803 11896 2805 1 109.50000 418.400000
2804 11896 2805 1 109.50000 418.400000
2806 11897 2807 1 109.50000 418.400000
2806 11897 2808 1 109.50000 418.400000
2806 11897 2809 1 109.50000 418.400000
2807 11897 2808 1 109.50000 418.400000
2807 11897 2809 1 109.50000 418.400000
2808 11897 2809 1 109.50000 418.400000
2810 11898 2811 1 109.50000 418.400000
2810 11898 2812 1 109.50000 418.400000
2810 11898 2813 1 109.50000 418.400000
2811 11898 2812 1 109.50000 418.400000
2811 11898 2813 1 109.50000 418.400000
2812 11898 2813 1 109.50000 418.400000
435 11899 436 1 109.50000 418.400000
435 11899 2814 1 109.50000 418.400000
435 11899 2816 1 109.50000 418.400000
436 11899 2814 1 109.50000 418.400000
436 11899 2816 1 109.50000 418.400000
2814 11899 2816 1 109.50000 418.400000
2818 11900 2819 1 109.50000 418.400000
2818 11900 2820 1 109.50000 418.400000
2818 11900 2821 1 109.50000 418.400000
2819 11900 2820 1 109.50000 418.400000
2819 11900 2821 1 109.50000 418.400000
2820 11900 2821 1 109.50000 418.400000
1494 11901 2822 1 109.50000 418.400000
1494 11901 2823 1 109.50000 418.400000
1494 11901 2824 1 109.50000 418.400000
2822 11901 2823 1 109.50000 418.400000
2822 11901 2824 1 109.50000 418.400000
2823 11901 2824 1 109.50000 418.400000
2825 11902 2826 1 109.50000 418.400000
2825 11902 2827 1 109.50000 418.400000
2825 11902 2828 1 109.50000 418.400000
2826 11902 2827 1 109.50000 418.400000
2826 11902 2828 1 109.50000 418.400000
2827 11902 2828 1 109.50000 418.400000
1803 11903 2829 1 109.50000 418.400000
1803 11903 2830 1 109.50000 418.400000
1803 11903 2831 1 109.50000 418.400000
2829 11903 2830 1 109.50000 418.400000
2829 11903 2831 1 109.50000 418.400000
2830 11903 2831 1 109.50000 418.400000
1186 11904 1994 1 109.50000 418.400000
1186 11904 2832 1 109.50000 418.400000
1186 11904 2833 1 109.50000 418.400000
1994 11904 2832 1 109.50000 418.400000
1994 11904 2833 1 109.50000 418.400000
2832 11904 2833 1 109.50000 418.400000
635 11905 2834 1 109.50000 418.400000
635 11905 2835 1 109.50000 418.400000
635 11905 2836 1 109.50000 418.400000
2834 11905 2835 1 109.50000 418.400000
2834 11905 2836 1 109.50000 418.400000
2835 11905 2836 1 109.50000 418.400000
1027 11906 2837 1 109.50000 418.400000
1027 11906 2838 1 109.50000 418.400000
1027 11906 2839 1 109.50000 418.400000
2837 11906 2838 1 109.50000 418.400000
2837 11906 2839 1 109.50000 418.400000
2838 11906 2839 1 109.50000 418.400000
2840 11907 2841 1 109.50000 418.400000
2840 11907 2842 1 109.50000 418.400000
2840 11907 2843 1 109.50000 418.400000
2841 11907 2842 1 109.50000 418.400000
2841 11907 2843 1 109.50000 418.400000
2842 11907 2843 1 109.50000 418.400000
2844 11908 2845 1 109.50000 418.400000
2844 11908 2846 1 109.50000 418.400000
2844 11908 2847 1 109.50000 418.400000
2845 11908 2846 1 109.50000 418.400000
2845 11908 2847 1 109.50000 418.400000
2846 11908 2847 1 109.50000 418.400000
300 11909 2848 1 109.50000 418.400000
300 11909 2849 1 109.50000 418.400000
300 11909 2850 1 109.50000 418.400000
2848 11909 2849 1 109.50000 418.400000
2848 11909 2850 1 109.50000 418.400000
2849 11909 2850 1 109.50000 418.400000
1763 11910 2851 1 109.50000 418.400000
1763 11910 2852 1 109.50000 418.400000
1763 11910 2853 1 109.50000 418.400000
2851 11910 2852 1 109.50000 418.400000
2851 11910 2853 1 109.50000 418.400000
2852 11910 2853 1 109.50000 418.400000
105 11911 2854 1 109.50000 418.400000
105 11911 2855 1 109.50000 418.400000
105 11911 2856 1 109.50000 418.400000
2854 11911 2855 1 109.50000 418.400000
2854 11911 2856 1 109.50000 418.400000
2855 11911 2856 1 109.50000 418.400000
2858 11912 2859 1 109.50000 418.400000
2858 11912 2860 1 109.50000 418.400000
2858 11912 7512 1 109.50000 418.400000
2859 11912 2860 1 109.50000 418.400000
2859 11912 7512 1 109.50000 418.400000
2860 11912 7512 1 109.50000 418.400000
261 11913 470 1 109.50000 418.400000
261 11913 2862 1 109.50000 418.400000
261 11913 2863 1 109.50000 418.400000
470 11913 2862 1 109.50000 418.400000
470 11913 2863 1 109.50000 418.400000
2862 11913 2863 1 109.50000 418.400000
2550 11914 2864 1 109.50000 418.400000
2550 11914 2865 1 109.50000 418.400000
2550 11914 4860 1 109.50000 418.400000
2864 11914 2865 1 109.50000 418.400000
2864 11914 4860 1 109.50000 418.400000
2865 11914 4860 1 109.50000 418.400000
2867 11915 2868 1 109.50000 418.400000
2867 11915 2869 1 109.50000 418.400000
2867 11915 2870 1 109.50000 418.400000
2868 11915 2869 1 109.50000 418.400000
2868 11915 2870 1 109.50000 418.400000
2869 11915 2870 1 109.50000 418.400000
1142 11916 2871 1 109.50000 418.400000
1142 11916 2872 1 109.50000 418.400000
1142 11916 2873 1 109.50000 418.400000
2871 11916 2872 1 109.50000 418.400000
2871 11916 2873 1 109.50000 418.400000
2872 11916 2873 1 109.50000 418.400000
1206 11917 2874 1 109.50000 418.400000
1206 11917 2875 1 109.50000 418.400000
1206 11917 2876 1 109.50000 418.400000
2874 11917 2875 1 109.50000 418.400000
2874 11917 2876 1 109.50000 418.400000
2875 11917 2876 1 109.50000 418.400000
2040 11918 2877 1 109.50000 418.400000
2040 11918 2878 1 109.50000 418.400000
2040 11918 2879 1 109.50000 418.400000
2877 11918 2878 1 109.50000 418.400000
2877 11918 2879 1 109.50000 418.400000
2878 11918 2879 1 109.50000 418.400000
2880 11919 2881 1 109.50000 418.400000
2880 11919 2882 1 109.50000 418.400000
2880 11919 2883 1 109.50000 418.400000
2881 11919 2882 1 109.50000 418.400000
2881 11919 2883 1 109.50000 418.400000
2882 11919 2883 1 109.50000 418.400000
1937 11920 2886 1 109.50000 418.400000
1937 11920 2887 1 109.50000 418.400000
1937 11920 2888 1 109.50000 418.400000
2886 11920 2887 1 109.50000 418.400000
2886 11920 2888 1 109.50000 418.400000
2887 11920 2888 1 109.50000 418.400000
2889 11921 2890 1 109.50000 418.400000
2889 11921 2891 1 109.50000 418.400000
2889 11921 11174 1 109.50000 418.400000
2890 11921 2891 1 109.50000 418.400000
2890 11921 11174 1 109.50000 418.400000
2891 11921 11174 1 109.50000 418.400000
2892 11922 2893 1 109.50000 418.400000
2892 11922 2895 1 109.50000 418.400000
2892 11922 9517 1 109.50000 418.400000
2893 11922 2895 1 109.50000 418.400000
2893 11922 9517 1 109.50000 418.400000
2895 11922 9517 1 109.50000 418.400000
2896 11923 2897 1 109.50000 418.400000
2896 11923 2898 1 109.50000 418.400000
2896 11923 2899 1 109.50000 418.400000
2897 11923 2898 1 109.50000 418.400000
2897 11923 2899 1 109.50000 418.400000
2898 11923 2899 1 109.50000 418.400000
1810 11924 2900 1 109.50000 418.400000
1810 11924 2901 1 109.50000 418.400000
1810 11924 2902 1 109.50000 418.400000
2900 11924 2901 1 109.50000 418.400000
2900 11924 2902 1 109.50000 418.400000
2901 11924 2902 1 109.50000 418.400000
156 11925 2903 1 109.50000 418.400000
156 11925 2904 1 109.50000 418.400000
156 11925 2905 1 109.50000 418.400000
2903 11925 2904 1 109.50000 418.400000
2903 11925 2905 1 109.50000 418.400000
2904 11925 2905 1 109.50000 418.400000
580 11926 906 1 109.50000 418.400000
580 11926 2906 1 109.50000 418.400000
580 11926 2908 1 109.50000 418.400000
906 11926 2906 1 109.50000 418.400000
906 11926 2908 1 109.50000 418.400000
2906 11926 2908 1 109.50000 418.400000
334 11927 2909 1 109.50000 418.400000
334 11927 2910 1 109.50000 418.400000
334 11927 2911 1 109.50000 418.400000
2909 11927 2910 1 109.50000 418.400000
2909 11927 2911 1 109.50000 418.400000
2910 11927 2911 1 109.50000 418.400000
2770 11928 2912 1 109.50000 418.400000
2770 11928 2913 1 109.50000 418.400000
2770 11928 2914 1 109.50000 418.400000
2912 11928 2913 1 109.50000 418.400000
2912 11928 2914 1 109.50000 418.400000
2913 11928 2914 1 109.50000 418.400000
2915 11929 2916 1 109.50000 418.400000
2915 11929 2917 1 109.50000 418.400000
2915 11929 3432 1 109.50000 418.400000
2916 11929 2917 1 109.50000 418.400000
2916 11929 3432 1 109.50000 418.400000
2917 11929 3432 1 109.50000 418.400000
2834 11930 2918 1 109.50000 418.400000
2834 11930 2919 1 109.50000 418.400000
2834 11930 2920 1 109.50000 418.400000
2918 11930 2919 1 109.50000 418.400000
2918 11930 2920 1 109.50000 418.400000
2919 11930 2920 1 109.50000 418.400000
566 11931 1468 1 109.50000 418.400000
566 11931 1470 1 109.50000 418.400000
566 11931 2623 1 109.50000 418.400000
1468 11931 1470 1 109.50000 418.400000
1468 11931 2623 1 109.50000 418.400000
1470 11931 2623 1 109.50000 418.400000
2923 11932 2924 1 109.50000 418.400000
2923 11932 2925 1 109.50000 418.400000
2923 11932 2926 1 109.50000 418.400000
2924 11932 2925 1 109.50000 418.400000
2924 11932 2926 1 109.50000 418.400000
2925 11932 2926 1 109.50000 418.400000
2927 11933 2928 1 109.50000 418.400000
2927 11933 2929 1 109.50000 418.400000
2927 11933 2930 1 109.50000 418.400000
2928 11933 2929 1 109.50000 418.400000
2928 11933 2930 1 109.50000 418.400000
2929 11933 2930 1 109.50000 418.400000
2003 11934 2931 1 109.50000 418.400000
2003 11934 2932 1 109.50000 418.400000
2003 11934 2933 1 109.50000 418.400000
2931 11934 2932 1 109.50000 418.400000
2931 11934 2933 1 109.50000 418.400000
2932 11934 2933 1 109.50000 418.400000
876 11935 2934 1 109.50000 418.400000
876 11935 2935 1 109.50000 418.400000
876 11935 2936 1 109.50000 418.400000
2934 11935 2935 1 109.50000 418.400000
2934 11935 2936 1 109.50000 418.400000
2935 11935 2936 1 109.50000 418.400000
655 11936 2937 1 109.50000 418.400000
655 11936 2938 1 109.50000 418.400000
655 11936 2939 1 109.50000 418.400000
2937 11936 2938 1 109.50000 418.400000
2937 11936 2939 1 109.50000 418.400000
2938 11936 2939 1 109.50000 418.400000
2940 11937 2941 1 109.50000 418.400000
2940 11937 2942 1 109.50000 418.400000
2940 11937 6129 1 109.50000 418.400000
2941 11937 2942 1 109.50000 418.400000
2941 11937 6129 1 109.50000 418.400000
2942 11937 6129 1 109.50000 418.400000
2947 11938 2948 1 109.50000 418.400000
2947 11938 2949 1 109.50000 418.400000
2947 11938 2950 1 109.50000 418.400000
2948 11938 2949 1 109.50000 418.400000
2948 11938 2950 1 109.50000 418.400000
2949 11938 2950 1 109.50000 418.400000
2953 11939 7431 1 109.50000 418.400000
2953 11939 8330 1 109.50000 418.400000
2953 11939 11062 1 109.50000 418.400000
7431 11939 8330 1 109.50000 418.400000
7431 11939 11062 1 109.50000 418.400000
8330 11939 11062 1 109.50000 418.400000
2269 11940 2955 1 109.50000 418.400000
2269 11940 2956 1 109.50000 418.400000
2269 11940 2957 1 109.50000 418.400000
2955 11940 2956 1 109.50000 418.400000
2955 11940 2957 1 109.50000 418.400000
2956 11940 2957 1 109.50000 418.400000
2958 11941 2959 1 109.50000 418.400000
2958 11941 2960 1 109.50000 418.400000
2958 11941 2961 1 109.50000 418.400000
2959 11941 2960 1 109.50000 418.400000
2959 11941 2961 1 109.50000 418.400000
2960 11941 2961 1 109.50000 418.400000
2962 11942 2963 1 109.50000 418.400000
2962 11942 2964 1 109.50000 418.400000
2962 11942 2965 1 109.50000 418.400000
2963 11942 2964 1 109.50000 418.400000
2963 11942 2965 1 109.50000 418.400000
2964 11942 2965 1 109.50000 418.400000
2966 11943 2967 1 109.50000 418.400000
2966 11943 2968 1 109.50000 418.400000
2966 11943 2969 1 109.50000 418.400000
2967 11943 2968 1 109.50000 418.400000
2967 11943 2969 1 109.50000 418.400000
2968 11943 2969 1 109.50000 418.400000
2970 11944 2971 1 109.50000 418.400000
2970 11944 2973 1 109.50000 418.400000
2970 11944 4010 1 109.50000 418.400000
2971 11944 2973 1 109.50000 418.400000
2971 11944 4010 1 109.50000 418.400000
2973 11944 4010 1 109.50000 418.400000
2974 11945 2975 1 109.50000 418.400000
2974 11945 2976 1 109.50000 418.400000
2974 11945 2977 1 109.50000 418.400000
2975 11945 2976 1 109.50000 418.400000
2975 11945 2977 1 109.50000 418.400000
2976 11945 2977 1 109.50000 418.400000
2978 11946 2979 1 109.50000 418.400000
2978 11946 2980 1 109.50000 418.400000
2978 11946 2981 1 109.50000 418.400000
2979 11946 2980 1 109.50000 418.400000
2979 11946 2981 1 109.50000 418.400000
2980 11946 2981 1 109.50000 418.400000
2982 11947 2983 1 109.50000 418.400000
2982 11947 2984 1 109.50000 418.400000
2982 11947 2985 1 109.50000 418.400000
2983 11947 2984 1 109.50000 418.400000
2983 11947 2985 1 109.50000 418.400000
2984 11947 2985 1 109.50000 418.400000
1583 11948 2996 1 109.50000 418.400000
1583 11948 2997 1 109.50000 418.400000
1583 11948 11213 1 109.50000 418.400000
2996 11948 2997 1 109.50000 418.400000
2996 11948 11213 1 109.50000 418.400000
2997 11948 11213 1 109.50000 418.400000
2998 11949 2999 1 109.50000 418.400000
2998 11949 3000 1 109.50000 418.400000
2998 11949 3001 1 109.50000 418.400000
2999 11949 3000 1 109.50000 418.400000
2999 11949 3001 1 109.50000 418.400000
3000 11949 3001 1 109.50000 418.400000
902 11950 2488 1 109.50000 418.400000
902 11950 3002 1 109.50000 418.400000
902 11950 3003 1 109.50000 418.400000
2488 11950 3002 1 109.50000 418.400000
2488 11950 3003 1 109.50000 418.400000
3002 11950 3003 1 109.50000 418.400000
1373 11951 3004 1 109.50000 418.400000
1373 11951 3005 1 109.50000 418.400000
1373 11951 3006 1 109.50000 418.400000
3004 11951 3005 1 109.50000 418.400000
3004 11951 3006 1 109.50000 418.400000
3005 11951 3006 1 109.50000 418.400000
3007 11952 3009 1 109.50000 418.400000
3007 11952 3010 1 109.50000 418.400000
3007 11952 8894 1 109.50000 418.400000
3009 11952 3010 1 109.50000 418.400000
3009 11952 8894 1 109.50000 418.400000
3010 11952 8894 1 109.50000 418.400000
3011 11953 3012 1 109.50000 418.400000
3011 11953 3013 1 109.50000 418.400000
3011 11953 3014 1 109.50000 418.400000
3012 11953 3013 1 109.50000 418.400000
3012 11953 3014 1 109.50000 418.400000
3013 11953 3014 1 109.50000 418.400000
2504 11954 3015 1 109.50000 418.400000
2504 11954 3016 1 109.50000 418.400000
2504 11954 3017 1 109.50000 418.400000
3015 11954 3016 1 109.50000 418.400000
3015 11954 3017 1 109.50000 418.400000
3016 11954 3017 1 109.50000 418.400000
3018 11955 3019 1 109.50000 418.400000
3018 11955 3020 1 109.50000 418.400000
3018 11955 3021 1 109.50000 418.400000
3019 11955 3020 1 109.50000 418.400000
3019 11955 3021 1 109.50000 418.400000
3020 11955 3021 1 109.50000 418.400000
2117 11956 3022 1 109.50000 418.400000
2117 11956 3023 1 109.50000 418.400000
2117 11956 3024 1 109.50000 418.400000
3022 11956 3023 1 109.50000 418.400000
3022 11956 3024 1 109.50000 418.400000
3023 11956 3024 1 109.50000 418.400000
3025 11957 3026 1 109.50000 418.400000
3025 11957 3027 1 109.50000 418.400000
3025 11957 3028 1 109.50000 418.400000
3026 11957 3027 1 109.50000 418.400000
3026 11957 3028 1 109.50000 418.400000
3027 11957 3028 1 109.50000 418.400000
3029 11958 3030 1 109.50000 418.400000
3029 11958 3031 1 109.50000 418.400000
3029 11958 3032 1 109.50000 418.400000
3030 11958 3031 1 109.50000 418.400000
3030 11958 3032 1 109.50000 418.400000
3031 11958 3032 1 109.50000 418.400000
2597 11959 3036 1 109.50000 418.400000
2597 11959 3037 1 109.50000 418.400000
2597 11959 3038 1 109.50000 418.400000
3036 11959 3037 1 109.50000 418.400000
3036 11959 3038 1 109.50000 418.400000
3037 11959 3038 1 109.50000 418.400000
3039 11960 3040 1 109.50000 418.400000
3039 11960 3041 1 109.50000 418.400000
3039 11960 10913 1 109.50000 418.400000
3040 11960 3041 1 109.50000 418.400000
3040 11960 10913 1 109.50000 418.400000
3041 11960 10913 1 109.50000 418.400000
3043 11961 3044 1 109.50000 418.400000
3043 11961 3045 1 109.50000 418.400000
3043 11961 5380 1 109.50000 418.400000
3044 11961 3045 1 109.50000 418.400000
3044 11961 5380 1 109.50000 418.400000
3045 11961 5380 1 109.50000 418.400000
3049 11962 3050 1 109.50000 418.400000
3049 11962 3051 1 109.50000 418.400000
3049 11962 3052 1 109.50000 418.400000
3050 11962 3051 1 109.50000 418.400000
3050 11962 3052 1 109.50000 418.400000
3051 11962 3052 1 109.50000 418.400000
303 11963 3053 1 109.50000 418.400000
303 11963 3054 1 109.50000 418.400000
303 11963 3055 1 109.50000 418.400000
3053 11963 3054 1 109.50000 418.400000
3053 11963 3055 1 109.50000 418.400000
3054 11963 3055 1 109.50000 418.400000
918 11964 1107 1 109.50000 418.400000
918 11964 1108 1 109.50000 418.400000
918 11964 1109 1 109.50000 418.400000
1107 11964 1108 1 109.50000 418.400000
1107 11964 1109 1 109.50000 418.400000
1108 11964 1109 1 109.50000 418.400000
3058 11965 3059 1 109.50000 418.400000
3058 11965 3060 1 109.50000 418.400000
3058 11965 8970 1 109.50000 418.400000
3059 11965 3060 1 109.50000 418.400000
3059 11965 8970 1 109.50000 418.400000
3060 11965 8970 1 109.50000 418.400000
637 11966 1730 1 109.50000 418.400000
637 11966 3061 1 109.50000 418.400000
637 11966 3062 1 109.50000 418.400000
1730 11966 3061 1 109.50000 418.400000
1730 11966 3062 1 109.50000 418.400000
3061 11966 3062 1 109.50000 418.400000
3063 11967 3064 1 109.50000 418.400000
3063 11967 3065 1 109.50000 418.400000
3063 11967 3066 1 109.50000 418.400000
3064 11967 3065 1 109.50000 418.400000
3064 11967 3066 1 109.50000 418.400000
3065 11967 3066 1 109.50000 418.400000
533 11968 3067 1 109.50000 418.400000
533 11968 3068 1 109.50000 418.400000
533 11968 3069 1 109.50000 418.400000
3067 11968 3068 1 109.50000 418.400000
3067 11968 3069 1 109.50000 418.400000
3068 11968 3069 1 109.50000 418.400000
3070 11969 3071 1 109.50000 418.400000
3070 11969 3072 1 109.50000 418.400000
3070 11969 3073 1 109.50000 418.400000
3071 11969 3072 1 109.50000 418.400000
3071 11969 3073 1 109.50000 418.400000
3072 11969 3073 1 109.50000 418.400000
1917 11970 3074 1 109.50000 418.400000
1917 11970 3075 1 109.50000 418.400000
1917 11970 3076 1 109.50000 418.400000
3074 11970 3075 1 109.50000 418.400000
3074 11970 3076 1 109.50000 418.400000
3075 11970 3076 1 109.50000 418.400000
2675 11971 3077 1 109.50000 418.400000
2675 11971 3078 1 109.50000 418.400000
2675 11971 3079 1 109.50000 418.400000
3077 11971 3078 1 109.50000 418.400000
3077 11971 3079 1 109.50000 418.400000
3078 11971 3079 1 109.50000 418.400000
1316 11972 2055 1 109.50000 418.400000
1316 11972 3080 1 109.50000 418.400000
1316 11972 3081 1 109.50000 418.400000
2055 11972 3080 1 109.50000 418.400000
2055 11972 3081 1 109.50000 418.400000
3080 11972 3081 1 109.50000 418.400000
1484 11973 2302 1 109.50000 418.400000
1484 11973 3082 1 109.50000 418.400000
1484 11973 3083 1 109.50000 418.400000
2302 11973 3082 1 109.50000 418.400000
2302 11973 3083 1 109.50000 418.400000
3082 11973 3083 1 109.50000 418.400000
2060 11974 3085 1 109.50000 418.400000
2060 11974 3086 1 109.50000 418.400000
2060 11974 5909 1 109.50000 418.400000
3085 11974 3086 1 109.50000 418.400000
3085 11974 5909 1 109.50000 418.400000
3086 11974 5909 1 109.50000 418.400000
1956 11975 3087 1 109.50000 418.400000
1956 11975 3088 1 109.50000 418.400000
1956 11975 3089 1 109.50000 418.400000
3087 11975 3088 1 109.50000 418.400000
3087 11975 3089 1 109.50000 418.400000
3088 11975 3089 1 109.50000 418.400000
3090 11976 3091 1 109.50000 418.400000
3090 11976 3092 1 109.50000 418.400000
3090 11976 3093 1 109.50000 418.400000
3091 11976 3092 1 109.50000 418.400000
3091 11976 3093 1 109.50000 418.400000
3092 11976 3093 1 109.50000 418.400000
1279 11977 3094 1 109.50000 418.400000
1279 11977 3095 1 109.50000 418.400000
1279 11977 3096 1 109.50000 418.400000
3094 11977 3095 1 109.50000 418.400000
3094 11977 3096 1 109.50000 418.400000
3095 11977 3096 1 109.50000 418.400000
277 11978 3097 1 109.50000 418.400000
277 11978 3098 1 109.50000 418.400000
277 11978 3099 1 109.50000 418.400000
3097 11978 3098 1 109.50000 418.400000
3097 11978 3099 1 109.50000 418.400000
3098 11978 3099 1 109.50000 418.400000
64 11979 3100 1 109.50000 418.400000
64 11979 3101 1 109.50000 418.400000
64 11979 9283 1 109.50000 418.400000
3100 11979 3101 1 109.50000 418.400000
3100 11979 9283 1 109.50000 418.400000
3101 11979 9283 1 109.50000 418.400000
2272 11980 2878 1 109.50000 418.400000
2272 11980 3102 1 109.50000 418.400000
2272 11980 3103 1 109.50000 418.400000
2878 11980 3102 1 109.50000 418.400000
2878 11980 3103 1 109.50000 418.400000
3102 11980 3103 1 109.50000 418.400000
1366 11981 3110 1 109.50000 418.400000
1366 11981 3111 1 109.50000 418.400000
1366 11981 3112 1 109.50000 418.400000
3110 11981 3111 1 109.50000 418.400000
3110 11981 3112 1 109.50000 418.400000
3111 11981 3112 1 109.50000 418.400000
3113 11982 3114 1 109.50000 418.400000
3113 11982 3115 1 109.50000 418.400000
3113 11982 3116 1 109.50000 418.400000
3114 11982 3115 1 109.50000 418.400000
3114 11982 3116 1 109.50000 418.400000
3115 11982 3116 1 109.50000 418.400000
2659 11983 2935 1 109.50000 418.400000
2659 11983 3117 1 109.50000 418.400000
2659 11983 3118 1 109.50000 418.400000
2935 11983 3117 1 109.50000 418.400000
2935 11983 3118 1 109.50000 418.400000
3117 11983 3118 1 109.50000 418.400000
3122 11984 3123 1 109.50000 418.400000
3122 11984 3124 1 109.50000 418.400000
3122 11984 3125 1 109.50000 418.400000
3123 11984 3124 1 109.50000 418.400000
3123 11984 3125 1 109.50000 418.400000
3124 11984 3125 1 109.50000 418.400000
3126 11985 3127 1 109.50000 418.400000
3126 11985 3128 1 109.50000 418.400000
3126 11985 3129 1 109.50000 418.400000
3127 11985 3128 1 109.50000 418.400000
3127 11985 3129 1 109.50000 418.400000
3128 11985 3129 1 109.50000 418.400000
1909 11986 3130 1 109.50000 418.400000
1909 11986 3131 1 109.50000 418.400000
1909 11986 3132 1 109.50000 418.400000
3130 11986 3131 1 109.50000 418.400000
3130 11986 3132 1 109.50000 418.400000
3131 11986 3132 1 109.50000 418.400000
3134 11987 3136 1 109.50000 418.400000
3134 11987 8505 1 109.50000 418.400000
3134 11987 8506 1 109.50000 418.400000
3136 11987 8505 1 109.50000 418.400000
3136 11987 8506 1 109.50000 418.400000
8505 11987 8506 1 109.50000 418.400000
900 11988 3137 1 109.50000 418.400000
900 11988 3138 1 109.50000 418.400000
900 11988 3139 1 109.50000 418.400000
3137 11988 3138 1 109.50000 418.400000
3137 11988 3139 1 109.50000 418.400000
3138 11988 3139 1 109.50000 418.400000
3140 11989 3141 1 109.50000 418.400000
3140 11989 3142 1 109.50000 418.400000
3140 11989 3143 1 109.50000 418.400000
3141 11989 3142 1 109.50000 418.400000
3141 11989 3143 1 109.50000 418.400000
3142 11989 3143 1 109.50000 418.400000
2294 11990 3144 1 109.50000 418.400000
2294 11990 3145 1 109.50000 418.400000
2294 11990 3146 1 109.50000 418.400000
3144 11990 3145 1 109.50000 418.400000
3144 11990 3146 1 109.50000 418.400000
3145 11990 3146 1 109.50000 418.400000
3150 11991 3151 1 109.50000 418.400000
3150 11991 3152 1 109.50000 418.400000
3150 11991 3153 1 109.50000 418.400000
3151 11991 3152 1 109.50000 418.400000
3151 11991 3153 1 109.50000 418.400000
3152 11991 3153 1 109.50000 418.400000
2396 11992 3154 1 109.50000 418.400000
2396 11992 3155 1 109.50000 418.400000
2396 11992 3156 1 109.50000 418.400000
3154 11992 3155 1 109.50000 418.400000
3154 11992 3156 1 109.50000 418.400000
3155 11992 3156 1 109.50000 418.400000
3157 11993 3158 1 109.50000 418.400000
3157 11993 3159 1 109.50000 418.400000
3157 11993 3160 1 109.50000 418.400000
3158 11993 3159 1 109.50000 418.400000
3158 11993 3160 1 109.50000 418.400000
3159 11993 3160 1 109.50000 418.400000
2404 11994 3162 1 109.50000 418.400000
2404 11994 3163 1 109.50000 418.400000
2404 11994 3164 1 109.50000 418.400000
3162 11994 3163 1 109.50000 418.400000
3162 11994 3164 1 109.50000 418.400000
3163 11994 3164 1 109.50000 418.400000
3165 11995 3166 1 109.50000 418.400000
3165 11995 3167 1 109.50000 418.400000
3165 11995 3168 1 109.50000 418.400000
3166 11995 3167 1 109.50000 418.400000
3166 11995 3168 1 109.50000 418.400000
3167 11995 3168 1 109.50000 418.400000
3169 11996 3170 1 109.50000 418.400000
3169 11996 3171 1 109.50000 418.400000
3169 11996 3172 1 109.50000 418.400000
3170 11996 3171 1 109.50000 418.400000
3170 11996 3172 1 109.50000 418.400000
3171 11996 3172 1 109.50000 418.400000
3173 11997 3174 1 109.50000 418.400000
3173 11997 3175 1 109.50000 418.400000
3173 11997 3176 1 109.50000 418.400000
3174 11997 3175 1 109.50000 418.400000
3174 11997 3176 1 109.50000 418.400000
3175 11997 3176 1 109.50000 418.400000
3177 11998 3178 1 109.50000 418.400000
3177 11998 3179 1 109.50000 418.400000
3177 11998 3180 1 109.50000 418.400000
3178 11998 3179 1 109.50000 418.400000
3178 11998 3180 1 109.50000 418.400000
3179 11998 3180 1 109.50000 418.400000
52 11999 3181 1 109.50000 418.400000
52 11999 3182 1 109.50000 418.400000
52 11999 3183 1 109.50000 418.400000
3181 11999 3182 1 109.50000 418.400000
3181 11999 3183 1 109.50000 418.400000
3182 11999 3183 1 109.50000 418.400000
593 12000 3185 1 109.50000 418.400000
593 12000 3186 1 109.50000 418.400000
593 12000 3187 1 109.50000 418.400000
3185 12000 3186 1 109.50000 418.400000
3185 12000 3187 1 109.50000 418.400000
3186 12000 3187 1 109.50000 418.400000
3190 12001 3191 1 109.50000 418.400000
3190 12001 3192 1 109.50000 418.400000
3190 12001 3193 1 109.50000 418.400000
3191 12001 3192 1 109.50000 418.400000
3191 12001 3193 1 109.50000 418.400000
3192 12001 3193 1 109.50000 418.400000
1028 12002 3194 1 109.50000 418.400000
1028 12002 3195 1 109.50000 418.400000
1028 12002 3197 1 109.50000 418.400000
3194 12002 3195 1 109.50000 418.400000
3194 12002 3197 1 109.50000 418.400000
3195 12002 3197 1 109.50000 418.400000
3198 12003 3199 1 109.50000 418.400000
3198 12003 3200 1 109.50000 418.400000
3198 12003 3201 1 109.50000 418.400000
3199 12003 3200 1 109.50000 418.400000
3199 12003 3201 1 109.50000 418.400000
3200 12003 3201 1 109.50000 418.400000
3202 12004 3203 1 109.50000 418.400000
3202 12004 3204 1 109.50000 418.400000
3202 12004 3205 1 109.50000 418.400000
3203 12004 3204 1 109.50000 418.400000
3203 12004 3205 1 109.50000 418.400000
3204 12004 3205 1 109.50000 418.400000
2022 12005 3206 1 109.50000 418.400000
2022 12005 3207 1 109.50000 418.400000
2022 12005 3208 1 109.50000 418.400000
3206 12005 3207 1 109.50000 418.400000
3206 12005 3208 1 109.50000 418.400000
3207 12005 3208 1 109.50000 418.400000
3209 12006 3210 1 109.50000 418.400000
3209 12006 3211 1 109.50000 418.400000
3209 12006 3212 1 109.50000 418.400000
3210 12006 3211 1 109.50000 418.400000
3210 12006 3212 1 109.50000 418.400000
3211 12006 3212 1 109.50000 418.400000
2880 12007 3213 1 109.50000 418.400000
2880 12007 3215 1 109.50000 418.400000
2880 12007 3450 1 109.50000 418.400000
3213 12007 3215 1 109.50000 418.400000
3213 12007 3450 1 109.50000 418.400000
3215 12007 3450 1 109.50000 418.400000
1602 12008 3216 1 109.50000 418.400000
1602 12008 3217 1 109.50000 418.400000
1602 12008 3218 1 109.50000 418.400000
3216 12008 3217 1 109.50000 418.400000
3216 12008 3218 1 109.50000 418.400000
3217 12008 3218 1 109.50000 418.400000
3219 12009 3220 1 109.50000 418.400000
3219 12009 3221 1 109.50000 418.400000
3219 12009 3222 1 109.50000 418.400000
3220 12009 3221 1 109.50000 418.400000
3220 12009 3222 1 109.50000 418.400000
3221 12009 3222 1 109.50000 418.400000
3225 12010 3226 1 109.50000 418.400000
3225 12010 3227 1 109.50000 418.400000
3225 12010 3228 1 109.50000 418.400000
3226 12010 3227 1 109.50000 418.400000
3226 12010 3228 1 109.50000 418.400000
3227 12010 3228 1 109.50000 418.400000
3229 12011 3230 1 109.50000 418.400000
3229 12011 3231 1 109.50000 418.400000
3229 12011 3232 1 109.50000 418.400000
3230 12011 3231 1 109.50000 418.400000
3230 12011 3232 1 109.50000 418.400000
3231 12011 3232 1 109.50000 418.400000
1357 12012 1359 1 109.50000 418.400000
1357 12012 1360 1 109.50000 418.400000
1357 12012 3233 1 109.50000 418.400000
1359 12012 1360 1 109.50000 418.400000
1359 12012 3233 1 109.50000 418.400000
1360 12012 3233 1 109.50000 418.400000
3236 12013 3237 1 109.50000 418.400000
3236 12013 3238 1 109.50000 418.400000
3236 12013 3239 1 109.50000 418.400000
3237 12013 3238 1 109.50000 418.400000
3237 12013 3239 1 109.50000 418.400000
3238 12013 3239 1 109.50000 418.400000
3240 12014 3241 1 109.50000 418.400000
3240 12014 3242 1 109.50000 418.400000
3240 12014 8115 1 109.50000 418.400000
3241 12014 3242 1 109.50000 418.400000
3241 12014 8115 1 109.50000 418.400000
3242 12014 8115 1 109.50000 418.400000
3093 12015 3243 1 109.50000 418.400000
3093 12015 3244 1 109.50000 418.400000
3093 12015 3245 1 109.50000 418.400000
3243 12015 3244 1 109.50000 418.400000
3243 12015 3245 1 109.50000 418.400000
3244 12015 3245 1 109.50000 418.400000
3246 12016 3247 1 109.50000 418.400000
3246 12016 3248 1 109.50000 418.400000
3246 12016 3249 1 109.50000 418.400000
3247 12016 3248 1 109.50000 418.400000
3247 12016 3249 1 109.50000 418.400000
3248 12016 3249 1 109.50000 418.400000
1492 12017 3250 1 109.50000 418.400000
1492 12017 3251 1 109.50000 418.400000
1492 12017 3252 1 109.50000 418.400000
3250 12017 3251 1 109.50000 418.400000
3250 12017 3252 1 109.50000 418.400000
3251 12017 3252 1 109.50000 418.400000
139 12018 3253 1 109.50000 418.400000
139 12018 3254 1 109.50000 418.400000
139 12018 3255 1 109.50000 418.400000
3253 12018 3254 1 109.50000 418.400000
3253 12018 3255 1 109.50000 418.400000
3254 12018 3255 1 109.50000 418.400000
3256 12019 3257 1 109.50000 418.400000
3256 12019 3258 1 109.50000 418.400000
3256 12019 3259 1 109.50000 418.400000
3257 12019 3258 1 109.50000 418.400000
3257 12019 3259 1 109.50000 418.400000
3258 12019 3259 1 109.50000 418.400000
3260 12020 3261 1 109.50000 418.400000
3260 12020 3262 1 109.50000 418.400000
3260 12020 3263 1 109.50000 418.400000
3261 12020 3262 1 109.50000 418.400000
3261 12020 3263 1 109.50000 418.400000
3262 12020 3263 1 109.50000 418.400000
2707 12021 3217 1 109.50000 418.400000
2707 12021 3222 1 109.50000 418.400000
2707 12021 3264 1 109.50000 418.400000
3217 12021 3222 1 109.50000 418.400000
3217 12021 3264 1 109.50000 418.400000
3222 12021 3264 1 109.50000 418.400000
3265 12022 3266 1 109.50000 418.400000
3265 12022 3267 1 109.50000 418.400000
3265 12022 3268 1 109.50000 418.400000
3266 12022 3267 1 109.50000 418.400000
3266 12022 3268 1 109.50000 418.400000
3267 12022 3268 1 109.50000 418.400000
3269 12023 3270 1 109.50000 418.400000
3269 12023 3271 1 109.50000 418.400000
3269 12023 3272 1 109.50000 418.400000
3270 12023 3271 1 109.50000 418.400000
3270 12023 3272 1 109.50000 418.400000
3271 12023 3272 1 109.50000 418.400000
3273 12024 3274 1 109.50000 418.400000
3273 12024 3275 1 109.50000 418.400000
3273 12024 3276 1 109.50000 418.400000
3274 12024 3275 1 109.50000 418.400000
3274 12024 3276 1 109.50000 418.400000
3275 12024 3276 1 109.50000 418.400000
983 12025 2334 1 109.50000 418.400000
983 12025 3277 1 109.50000 418.400000
983 12025 3278 1 109.50000 418.400000
2334 12025 3277 1 109.50000 418.400000
2334 12025 3278 1 109.50000 418.400000
3277 12025 3278 1 109.50000 418.400000
1301 12026 3279 1 109.50000 418.400000
1301 12026 3280 1 109.50000 418.400000
1301 12026 3281 1 109.50000 418.400000
3279 12026 3280 1 109.50000 418.400000
3279 12026 3281 1 109.50000 418.400000
3280 12026 3281 1 109.50000 418.400000
146 12027 3282 1 109.50000 418.400000
146 12027 3283 1 109.50000 418.400000
146 12027 11199 1 109.50000 418.400000
3282 12027 3283 1 109.50000 418.400000
3282 12027 11199 1 109.50000 418.400000
3283 12027 11199 1 109.50000 418.400000
1671 12028 1764 1 109.50000 418.400000
1671 12028 3286 1 109.50000 418.400000
1671 12028 3287 1 109.50000 418.400000
1764 12028 3286 1 109.50000 418.400000
1764 12028 3287 1 109.50000 418.400000
3286 12028 3287 1 109.50000 418.400000
1409 12029 3288 1 109.50000 418.400000
1409 12029 3289 1 109.50000 418.400000
1409 12029 3290 1 109.50000 418.400000
3288 12029 3289 1 109.50000 418.400000
3288 12029 3290 1 109.50000 418.400000
3289 12029 3290 1 109.50000 418.400000
3292 12030 3293 1 109.50000 418.400000
3292 12030 3294 1 109.50000 418.400000
3292 12030 5550 1 109.50000 418.400000
3293 12030 3294 1 109.50000 418.400000
3293 12030 5550 1 109.50000 418.400000
3294 12030 5550 1 109.50000 418.400000
3167 12031 3295 1 109.50000 418.400000
3167 12031 3296 1 109.50000 418.400000
3167 12031 3297 1 109.50000 418.400000
3295 12031 3296 1 109.50000 418.400000
3295 12031 3297 1 109.50000 418.400000
3296 12031 3297 1 109.50000 418.400000
3299 12032 3300 1 109.50000 418.400000
3299 12032 3301 1 109.50000 418.400000
3299 12032 6492 1 109.50000 418.400000
3300 12032 3301 1 109.50000 418.400000
3300 12032 6492 1 109.50000 418.400000
3301 12032 6492 1 109.50000 418.400000
3305 12033 3306 1 109.50000 418.400000
3305 12033 3307 1 109.50000 418.400000
3305 12033 3308 1 109.50000 418.400000
3306 12033 3307 1 109.50000 418.400000
3306 12033 3308 1 109.50000 418.400000
3307 12033 3308 1 109.50000 418.400000
3309 12034 3310 1 109.50000 418.400000
3309 12034 3311 1 109.50000 418.400000
3309 12034 3312 1 109.50000 418.400000
3310 12034 3311 1 109.50000 418.400000
3310 12034 3312 1 109.50000 418.400000
3311 12034 3312 1 109.50000 418.400000
3313 12035 3314 1 109.50000 418.400000
3313 12035 3315 1 109.50000 418.400000
3313 12035 3316 1 109.50000 418.400000
3314 12035 3315 1 109.50000 418.400000
3314 12035 3316 1 109.50000 418.400000
3315 12035 3316 1 109.50000 418.400000
333 12036 3317 1 109.50000 418.400000
333 12036 3318 1 109.50000 418.400000
333 12036 3319 1 109.50000 418.400000
3317 12036 3318 1 109.50000 418.400000
3317 12036 3319 1 109.50000 418.400000
3318 12036 3319 1 109.50000 418.400000
3152 12037 3320 1 109.50000 418.400000
3152 12037 3321 1 109.50000 418.400000
3152 12037 3322 1 109.50000 418.400000
3320 12037 3321 1 109.50000 418.400000
3320 12037 3322 1 109.50000 418.400000
3321 12037 3322 1 109.50000 418.400000
291 12038 972 1 109.50000 418.400000
291 12038 3323 1 109.50000 418.400000
291 12038 3324 1 109.50000 418.400000
972 12038 3323 1 109.50000 418.400000
972 12038 3324 1 109.50000 418.400000
3323 12038 3324 1 109.50000 418.400000
3325 12039 3326 1 109.50000 418.400000
3325 12039 3327 1 109.50000 418.400000
3325 12039 9134 1 109.50000 418.400000
3326 12039 3327 1 109.50000 418.400000
3326 12039 9134 1 109.50000 418.400000
3327 12039 9134 1 109.50000 418.400000
3329 12040 3330 1 109.50000 418.400000
3329 12040 3331 1 109.50000 418.400000
3329 12040 3332 1 109.50000 418.400000
3330 12040 3331 1 109.50000 418.400000
3330 12040 3332 1 109.50000 418.400000
3331 12040 3332 1 109.50000 418.400000
1980 12041 3336 1 109.50000 418.400000
1980 12041 3337 1 109.50000 418.400000
1980 12041 11210 1 109.50000 418.400000
3336 12041 3337 1 109.50000 418.400000
3336 12041 11210 1 109.50000 418.400000
3337 12041 11210 1 109.50000 418.400000
3340 12042 3341 1 109.50000 418.400000
3340 12042 3342 1 109.50000 418.400000
3340 12042 3343 1 109.50000 418.400000
3341 12042 3342 1 109.50000 418.400000
3341 12042 3343 1 109.50000 418.400000
3342 12042 3343 1 109.50000 418.400000
3344 12043 3345 1 109.50000 418.400000
3344 12043 3346 1 109.50000 418.400000
3344 12043 3347 1 109.50000 418.400000
3345 12043 3346 1 109.50000 418.400000
3345 12043 3347 1 109.50000 418.400000
3346 12043 3347 1 109.50000 418.400000
1502 12044 3348 1 109.50000 418.400000
1502 12044 3349 1 109.50000 418.400000
1502 12044 3350 1 109.50000 418.400000
3348 12044 3349 1 109.50000 418.400000
3348 12044 3350 1 109.50000 418.400000
3349 12044 3350 1 109.50000 418.400000
2919 12045 3354 1 109.50000 418.400000
2919 12045 3355 1 109.50000 418.400000
2919 12045 3356 1 109.50000 418.400000
3354 12045 3355 1 109.50000 418.400000
3354 12045 3356 1 109.50000 418.400000
3355 12045 3356 1 109.50000 418.400000
3358 12046 3359 1 109.50000 418.400000
3358 12046 3360 1 109.50000 418.400000
3358 12046 3739 1 109.50000 418.400000
3359 12046 3360 1 109.50000 418.400000
3359 12046 3739 1 109.50000 418.400000
3360 12046 3739 1 109.50000 418.400000
3038 12047 3361 1 109.50000 418.400000
3038 12047 3362 1 109.50000 418.400000
3038 12047 3363 1 109.50000 418.400000
3361 12047 3362 1 109.50000 418.400000
3361 12047 3363 1 109.50000 418.400000
3362 12047 3363 1 109.50000 418.400000
1406 12048 3364 1 109.50000 418.400000
1406 12048 3365 1 109.50000 418.400000
1406 12048 3367 1 109.50000 418.400000
3364 12048 3365 1 109.50000 418.400000
3364 12048 3367 1 109.50000 418.400000
3365 12048 3367 1 109.50000 418.400000
1574 12049 3368 1 109.50000 418.400000
1574 12049 3369 1 109.50000 418.400000
1574 12049 3370 1 109.50000 418.400000
3368 12049 3369 1 109.50000 418.400000
3368 12049 3370 1 109.50000 418.400000
3369 12049 3370 1 109.50000 418.400000
3372 12050 3373 1 109.50000 418.400000
3372 12050 3374 1 109.50000 418.400000
3372 12050 3375 1 109.50000 418.400000
3373 12050 3374 1 109.50000 418.400000
3373 12050 3375 1 109.50000 418.400000
3374 12050 3375 1 109.50000 418.400000
3381 12051 3382 1 109.50000 418.400000
3381 12051 3383 1 109.50000 418.400000
3381 12051 3384 1 109.50000 418.400000
3382 12051 3383 1 109.50000 418.400000
3382 12051 3384 1 109.50000 418.400000
3383 12051 3384 1 109.50000 418.400000
3388 12052 3389 1 109.50000 418.400000
3388 12052 3390 1 109.50000 418.400000
3388 12052 3391 1 109.50000 418.400000
3389 12052 3390 1 109.50000 418.400000
3389 12052 3391 1 109.50000 418.400000
3390 12052 3391 1 109.50000 418.400000
3392 12053 3393 1 109.50000 418.400000
3392 12053 3394 1 109.50000 418.400000
3392 12053 3395 1 109.50000 418.400000
3393 12053 3394 1 109.50000 418.400000
3393 12053 3395 1 109.50000 418.400000
3394 12053 3395 1 109.50000 418.400000
513 12054 3396 1 109.50000 418.400000
513 12054 3397 1 109.50000 418.400000
513 12054 3398 1 109.50000 418.400000
3396 12054 3397 1 109.50000 418.400000
3396 12054 3398 1 109.50000 418.400000
3397 12054 3398 1 109.50000 418.400000
588 12055 3399 1 109.50000 418.400000
588 12055 3400 1 109.50000 418.400000
588 12055 3401 1 109.50000 418.400000
3399 12055 3400 1 109.50000 418.400000
3399 12055 3401 1 109.50000 418.400000
3400 12055 3401 1 109.50000 418.400000
3402 12056 3403 1 109.50000 418.400000
3402 12056 3404 1 109.50000 418.400000
3402 12056 3405 1 109.50000 418.400000
3403 12056 3404 1 109.50000 418.400000
3403 12056 3405 1 109.50000 418.400000
3404 12056 3405 1 109.50000 418.400000
26 12057 2286 1 109.50000 418.400000
26 12057 3213 1 109.50000 418.400000
26 12057 3406 1 109.50000 418.400000
2286 12057 3213 1 109.50000 418.400000
2286 12057 3406 1 109.50000 418.400000
3213 12057 3406 1 109.50000 418.400000
524 12058 3408 1 109.50000 418.400000
524 12058 3409 1 109.50000 418.400000
524 12058 4419 1 109.50000 418.400000
3408 12058 3409 1 109.50000 418.400000
3408 12058 4419 1 109.50000 418.400000
3409 12058 4419 1 109.50000 418.400000
3410 12059 3411 1 109.50000 418.400000
3410 12059 3412 1 109.50000 418.400000
3410 12059 3413 1 109.50000 418.400000
3411 12059 3412 1 109.50000 418.400000
3411 12059 3413 1 109.50000 418.400000
3412 12059 3413 1 109.50000 418.400000
1284 12060 3414 1 109.50000 418.400000
1284 12060 3416 1 109.50000 418.400000
1284 12060 5927 1 109.50000 418.400000
3414 12060 3416 1 109.50000 418.400000
3414 12060 5927 1 109.50000 418.400000
3416 12060 5927 1 109.50000 418.400000
3420 12061 3421 1 109.50000 418.400000
3420 12061 3422 1 109.50000 418.400000
3420 12061 3423 1 109.50000 418.400000
3421 12061 3422 1 109.50000 418.400000
3421 12061 3423 1 109.50000 418.400000
3422 12061 3423 1 109.50000 418.400000
11 12062 3424 1 109.50000 418.400000
11 12062 3425 1 109.50000 418.400000
11 12062 11197 1 109.50000 418.400000
3424 12062 3425 1 109.50000 418.400000
3424 12062 11197 1 109.50000 418.400000
3425 12062 11197 1 109.50000 418.400000
3426 12063 3427 1 109.50000 418.400000
3426 12063 3428 1 109.50000 418.400000
3426 12063 3429 1 109.50000 418.400000
3427 12063 3428 1 109.50000 418.400000
3427 12063 3429 1 109.50000 418.400000
3428 12063 3429 1 109.50000 418.400000
3023 12064 3132 1 109.50000 418.400000
3023 12064 3432 1 109.50000 418.400000
3023 12064 3433 1 109.50000 418.400000
3132 12064 3432 1 109.50000 418.400000
3132 12064 3433 1 109.50000 418.400000
3432 12064 3433 1 109.50000 418.400000
3435 12065 3436 1 109.50000 418.400000
3435 12065 3437 1 109.50000 418.400000
3435 12065 3438 1 109.50000 418.400000
3436 12065 3437 1 109.50000 418.400000
3436 12065 3438 1 109.50000 418.400000
3437 12065 3438 1 109.50000 418.400000
3439 12066 3440 1 109.50000 418.400000
3439 12066 3441 1 109.50000 418.400000
3439 12066 3442 1 109.50000 418.400000
3440 12066 3441 1 109.50000 418.400000
3440 12066 3442 1 109.50000 418.400000
3441 12066 3442 1 109.50000 418.400000
2513 12067 2832 1 109.50000 418.400000
2513 12067 3374 1 109.50000 418.400000
2513 12067 3443 1 109.50000 418.400000
2832 12067 3374 1 109.50000 418.400000
2832 12067 3443 1 109.50000 418.400000
3374 12067 3443 1 109.50000 418.400000
3444 12068 3445 1 109.50000 418.400000
3444 12068 3446 1 109.50000 418.400000
3444 12068 3447 1 109.50000 418.400000
3445 12068 3446 1 109.50000 418.400000
3445 12068 3447 1 109.50000 418.400000
3446 12068 3447 1 109.50000 418.400000
3448 12069 3449 1 109.50000 418.400000
3448 12069 3450 1 109.50000 418.400000
3448 12069 3451 1 109.50000 418.400000
3449 12069 3450 1 109.50000 418.400000
3449 12069 3451 1 109.50000 418.400000
3450 12069 3451 1 109.50000 418.400000
56 12070 2671 1 109.50000 418.400000
56 12070 3452 1 109.50000 418.400000
56 12070 3453 1 109.50000 418.400000
2671 12070 3452 1 109.50000 418.400000
2671 12070 3453 1 109.50000 418.400000
3452 12070 3453 1 109.50000 418.400000
1571 12071 3454 1 109.50000 418.400000
1571 12071 3455 1 109.50000 418.400000
1571 12071 3456 1 109.50000 418.400000
3454 12071 3455 1 109.50000 418.400000
3454 12071 3456 1 109.50000 418.400000
3455 12071 3456 1 109.50000 418.400000
1439 12072 1472 1 109.50000 418.400000
1439 12072 3457 1 109.50000 418.400000
1439 12072 3459 1 109.50000 418.400000
1472 12072 3457 1 109.50000 418.400000
1472 12072 3459 1 109.50000 418.400000
3457 12072 3459 1 109.50000 418.400000
3460 12073 3461 1 109.50000 418.400000
3460 12073 3462 1 109.50000 418.400000
3460 12073 3463 1 109.50000 418.400000
3461 12073 3462 1 109.50000 418.400000
3461 12073 3463 1 109.50000 418.400000
3462 12073 3463 1 109.50000 418.400000
3464 12074 3465 1 109.50000 418.400000
3464 12074 3466 1 109.50000 418.400000
3464 12074 3467 1 109.50000 418.400000
3465 12074 3466 1 109.50000 418.400000
3465 12074 3467 1 109.50000 418.400000
3466 12074 3467 1 109.50000 418.400000
2460 12075 3468 1 109.50000 418.400000
2460 12075 3469 1 109.50000 418.400000
2460 12075 3470 1 109.50000 418.400000
3468 12075 3469 1 109.50000 418.400000
3468 12075 3470 1 109.50000 418.400000
3469 12075 3470 1 109.50000 418.400000
3471 12076 3472 1 109.50000 418.400000
3471 12076 3473 1 109.50000 418.400000
3471 12076 3474 1 109.50000 418.400000
3472 12076 3473 1 109.50000 418.400000
3472 12076 3474 1 109.50000 418.400000
3473 12076 3474 1 109.50000 418.400000
2365 12077 3434 1 109.50000 418.400000
2365 12077 3475 1 109.50000 418.400000
2365 12077 3476 1 109.50000 418.400000
3434 12077 3475 1 109.50000 418.400000
3434 12077 3476 1 109.50000 418.400000
3475 12077 3476 1 109.50000 418.400000
3480 12078 3481 1 109.50000 418.400000
3480 12078 3482 1 109.50000 418.400000
3480 12078 3483 1 109.50000 418.400000
3481 12078 3482 1 109.50000 418.400000
3481 12078 3483 1 109.50000 418.400000
3482 12078 3483 1 109.50000 418.400000
784 12079 2738 1 109.50000 418.400000
784 12079 3484 1 109.50000 418.400000
784 12079 3485 1 109.50000 418.400000
2738 12079 3484 1 109.50000 418.400000
2738 12079 3485 1 109.50000 418.400000
3484 12079 3485 1 109.50000 418.400000
729 12080 3489 1 109.50000 418.400000
729 12080 3490 1 109.50000 418.400000
729 12080 3491 1 109.50000 418.400000
3489 12080 3490 1 109.50000 418.400000
3489 12080 3491 1 109.50000 418.400000
3490 12080 3491 1 109.50000 418.400000
3495 12081 3496 1 109.50000 418.400000
3495 12081 3497 1 109.50000 418.400000
3495 12081 3498 1 109.50000 418.400000
3496 12081 3497 1 109.50000 418.400000
3496 12081 3498 1 109.50000 418.400000
3497 12081 3498 1 109.50000 418.400000
3499 12082 3500 1 109.50000 418.400000
3499 12082 3501 1 109.50000 418.400000
3499 12082 3502 1 109.50000 418.400000
3500 12082 3501 1 109.50000 418.400000
3500 12082 3502 1 109.50000 418.400000
3501 12082 3502 1 109.50000 418.400000
1565 12083 3503 1 109.50000 418.400000
1565 12083 3504 1 109.50000 418.400000
1565 12083 3505 1 109.50000 418.400000
3503 12083 3504 1 109.50000 418.400000
3503 12083 3505 1 109.50000 418.400000
3504 12083 3505 1 109.50000 418.400000
3506 12084 3507 1 109.50000 418.400000
3506 12084 3508 1 109.50000 418.400000
3506 12084 3509 1 109.50000 418.400000
3507 12084 3508 1 109.50000 418.400000
3507 12084 3509 1 109.50000 418.400000
3508 12084 3509 1 109.50000 418.400000
3510 12085 3511 1 109.50000 418.400000
3510 12085 3512 1 109.50000 418.400000
3510 12085 3513 1 109.50000 418.400000
3511 12085 3512 1 109.50000 418.400000
3511 12085 3513 1 109.50000 418.400000
3512 12085 3513 1 109.50000 418.400000
3214 12086 3215 1 109.50000 418.400000
3214 12086 3514 1 109.50000 418.400000
3214 12086 3515 1 109.50000 418.400000
3215 12086 3514 1 109.50000 418.400000
3215 12086 3515 1 109.50000 418.400000
3514 12086 3515 1 109.50000 418.400000
267 12087 3516 1 109.50000 418.400000
267 12087 3517 1 109.50000 418.400000
267 12087 9304 1 109.50000 418.400000
3516 12087 3517 1 109.50000 418.400000
3516 12087 9304 1 109.50000 418.400000
3517 12087 9304 1 109.50000 418.400000
903 12088 3518 1 109.50000 418.400000
903 12088 3519 1 109.50000 418.400000
903 12088 3520 1 109.50000 418.400000
3518 12088 3519 1 109.50000 418.400000
3518 12088 3520 1 109.50000 418.400000
3519 12088 3520 1 109.50000 418.400000
3521 12089 3522 1 109.50000 418.400000
3521 12089 3523 1 109.50000 418.400000
3521 12089 3524 1 109.50000 418.400000
3522 12089 3523 1 109.50000 418.400000
3522 12089 3524 1 109.50000 418.400000
3523 12089 3524 1 109.50000 418.400000
219 12090 3528 1 109.50000 418.400000
219 12090 3529 1 109.50000 418.400000
219 12090 3530 1 109.50000 418.400000
3528 12090 3529 1 109.50000 418.400000
3528 12090 3530 1 109.50000 418.400000
3529 12090 3530 1 109.50000 418.400000
3531 12091 3532 1 109.50000 418.400000
3531 12091 3533 1 109.50000 418.400000
3531 12091 3534 1 109.50000 418.400000
3532 12091 3533 1 109.50000 418.400000
3532 12091 3534 1 109.50000 418.400000
3533 12091 3534 1 109.50000 418.400000
720 12092 3535 1 109.50000 418.400000
720 12092 3536 1 109.50000 418.400000
720 12092 3537 1 109.50000 418.400000
3535 12092 3536 1 109.50000 418.400000
3535 12092 3537 1 109.50000 418.400000
3536 12092 3537 1 109.50000 418.400000
3538 12093 3539 1 109.50000 418.400000
3538 12093 3540 1 109.50000 418.400000
3538 12093 3541 1 109.50000 418.400000
3539 12093 3540 1 109.50000 418.400000
3539 12093 3541 1 109.50000 418.400000
3540 12093 3541 1 109.50000 418.400000
3542 12094 3543 1 109.50000 418.400000
3542 12094 3544 1 109.50000 418.400000
3542 12094 3545 1 109.50000 418.400000
3543 12094 3544 1 109.50000 418.400000
3543 12094 3545 1 109.50000 418.400000
3544 12094 3545 1 109.50000 418.400000
1743 12095 3546 1 109.50000 418.400000
1743 12095 3547 1 109.50000 418.400000
1743 12095 3548 1 109.50000 418.400000
3546 12095 3547 1 109.50000 418.400000
3546 12095 3548 1 109.50000 418.400000
3547 12095 3548 1 109.50000 418.400000
3549 12096 3550 1 109.50000 418.400000
3549 12096 3551 1 109.50000 418.400000
3549 12096 3552 1 109.50000 418.400000
3550 12096 3551 1 109.50000 418.400000
3550 12096 3552 1 109.50000 418.400000
3551 12096 3552 1 109.50000 418.400000
1886 12097 2850 1 109.50000 418.400000
1886 12097 3553 1 109.50000 418.400000
1886 12097 3554 1 109.50000 418.400000
2850 12097 3553 1 109.50000 418.400000
2850 12097 3554 1 109.50000 418.400000
3553 12097 3554 1 109.50000 418.400000
3555 12098 3556 1 109.50000 418.400000
3555 12098 3557 1 109.50000 418.400000
3555 12098 3558 1 109.50000 418.400000
3556 12098 3557 1 109.50000 418.400000
3556 12098 3558 1 109.50000 418.400000
3557 12098 3558 1 109.50000 418.400000
3563 12099 3564 1 109.50000 418.400000
3563 12099 6283 1 109.50000 418.400000
3563 12099 10332 1 109.50000 418.400000
3564 12099 6283 1 109.50000 418.400000
3564 12099 10332 1 109.50000 418.400000
6283 12099 10332 1 109.50000 418.400000
3571 12100 3572 1 109.50000 418.400000
3571 12100 3573 1 109.50000 418.400000
3571 12100 3574 1 109.50000 418.400000
3572 12100 3573 1 109.50000 418.400000
3572 12100 3574 1 109.50000 418.400000
3573 12100 3574 1 109.50000 418.400000
745 12101 3455 1 109.50000 418.400000
745 12101 3575 1 109.50000 418.400000
745 12101 3576 1 109.50000 418.400000
3455 12101 3575 1 109.50000 418.400000
3455 12101 3576 1 109.50000 418.400000
3575 12101 3576 1 109.50000 418.400000
1648 12102 1649 1 109.50000 418.400000
1648 12102 3578 1 109.50000 418.400000
1648 12102 3579 1 109.50000 418.400000
1649 12102 3578 1 109.50000 418.400000
1649 12102 3579 1 109.50000 418.400000
3578 12102 3579 1 109.50000 418.400000
3002 12103 3580 1 109.50000 418.400000
3002 12103 3581 1 109.50000 418.400000
3002 12103 3582 1 109.50000 418.400000
3580 12103 3581 1 109.50000 418.400000
3580 12103 3582 1 109.50000 418.400000
3581 12103 3582 1 109.50000 418.400000
755 12104 2127 1 109.50000 418.400000
755 12104 3436 1 109.50000 418.400000
755 12104 3583 1 109.50000 418.400000
2127 12104 3436 1 109.50000 418.400000
2127 12104 3583 1 109.50000 418.400000
3436 12104 3583 1 109.50000 418.400000
286 12105 3584 1 109.50000 418.400000
286 12105 3585 1 109.50000 418.400000
286 12105 3586 1 109.50000 418.400000
3584 12105 3585 1 109.50000 418.400000
3584 12105 3586 1 109.50000 418.400000
3585 12105 3586 1 109.50000 418.400000
3588 12106 3589 1 109.50000 418.400000
3588 12106 3590 1 109.50000 418.400000
3588 12106 5393 1 109.50000 418.400000
3589 12106 3590 1 109.50000 418.400000
3589 12106 5393 1 109.50000 418.400000
3590 12106 5393 1 109.50000 418.400000
3591 12107 3592 1 109.50000 418.400000
3591 12107 3593 1 109.50000 418.400000
3591 12107 3594 1 109.50000 418.400000
3592 12107 3593 1 109.50000 418.400000
3592 12107 3594 1 109.50000 418.400000
3593 12107 3594 1 109.50000 418.400000
2446 12108 3595 1 109.50000 418.400000
2446 12108 3596 1 109.50000 418.400000
2446 12108 3597 1 109.50000 418.400000
3595 12108 3596 1 109.50000 418.400000
3595 12108 3597 1 109.50000 418.400000
3596 12108 3597 1 109.50000 418.400000
644 12109 3598 1 109.50000 418.400000
644 12109 3599 1 109.50000 418.400000
644 12109 3600 1 109.50000 418.400000
3598 12109 3599 1 109.50000 418.400000
3598 12109 3600 1 109.50000 418.400000
3599 12109 3600 1 109.50000 418.400000
612 12110 3602 1 109.50000 418.400000
612 12110 3603 1 109.50000 418.400000
612 12110 3604 1 109.50000 418.400000
3602 12110 3603 1 109.50000 418.400000
3602 12110 3604 1 109.50000 418.400000
3603 12110 3604 1 109.50000 418.400000
3605 12111 3606 1 109.50000 418.400000
3605 12111 3607 1 109.50000 418.400000
3605 12111 3608 1 109.50000 418.400000
3606 12111 3607 1 109.50000 418.400000
3606 12111 3608 1 109.50000 418.400000
3607 12111 3608 1 109.50000 418.400000
3609 12112 3610 1 109.50000 418.400000
3609 12112 3611 1 109.50000 418.400000
3609 12112 3612 1 109.50000 418.400000
3610 12112 3611 1 109.50000 418.400000
3610 12112 3612 1 109.50000 418.400000
3611 12112 3612 1 109.50000 418.400000
3613 12113 3614 1 109.50000 418.400000
3613 12113 3615 1 109.50000 418.400000
3613 12113 3616 1 109.50000 418.400000
3614 12113 3615 1 109.50000 418.400000
3614 12113 3616 1 109.50000 418.400000
3615 12113 3616 1 109.50000 418.400000
1499 12114 1500 1 109.50000 418.400000
1499 12114 3618 1 109.50000 418.400000
1499 12114 3619 1 109.50000 418.400000
1500 12114 3618 1 109.50000 418.400000
1500 12114 3619 1 109.50000 418.400000
3618 12114 3619 1 109.50000 418.400000
855 12115 3620 1 109.50000 418.400000
855 12115 3621 1 109.50000 418.400000
855 12115 3622 1 109.50000 418.400000
3620 12115 3621 1 109.50000 418.400000
3620 12115 3622 1 109.50000 418.400000
3621 12115 3622 1 109.50000 418.400000
3623 12116 3624 1 109.50000 418.400000
3623 12116 3626 1 109.50000 418.400000
3623 12116 6768 1 109.50000 418.400000
3624 12116 3626 1 109.50000 418.400000
3624 12116 6768 1 109.50000 418.400000
3626 12116 6768 1 109.50000 418.400000
543 12117 3629 1 109.50000 418.400000
543 12117 3631 1 109.50000 418.400000
543 12117 7820 1 109.50000 418.400000
3629 12117 3631 1 109.50000 418.400000
3629 12117 7820 1 109.50000 418.400000
3631 12117 7820 1 109.50000 418.400000
669 12118 3632 1 109.50000 418.400000
669 12118 3633 1 109.50000 418.400000
669 12118 3634 1 109.50000 418.400000
3632 12118 3633 1 109.50000 418.400000
3632 12118 3634 1 109.50000 418.400000
3633 12118 3634 1 109.50000 418.400000
641 12119 1555 1 109.50000 418.400000
641 12119 3636 1 109.50000 418.400000
641 12119 3637 1 109.50000 418.400000
1555 12119 3636 1 109.50000 418.400000
1555 12119 3637 1 109.50000 418.400000
3636 12119 3637 1 109.50000 418.400000
3638 12120 3639 1 109.50000 418.400000
3638 12120 3640 1 109.50000 418.400000
3638 12120 3641 1 109.50000 418.400000
3639 12120 3640 1 109.50000 418.400000
3639 12120 3641 1 109.50000 418.400000
3640 12120 3641 1 109.50000 418.400000
1766 12121 3646 1 109.50000 418.400000
1766 12121 3647 1 109.50000 418.400000
1766 12121 3648 1 109.50000 418.400000
3646 12121 3647 1 109.50000 418.400000
3646 12121 3648 1 109.50000 418.400000
3647 12121 3648 1 109.50000 418.400000
2436 12122 3259 1 109.50000 418.400000
2436 12122 3649 1 109.50000 418.400000
2436 12122 3650 1 109.50000 418.400000
3259 12122 3649 1 109.50000 418.400000
3259 12122 3650 1 109.50000 418.400000
3649 12122 3650 1 109.50000 418.400000
2845 12123 3651 1 109.50000 418.400000
2845 12123 3652 1 109.50000 418.400000
2845 12123 3653 1 109.50000 418.400000
3651 12123 3652 1 109.50000 418.400000
3651 12123 3653 1 109.50000 418.400000
3652 12123 3653 1 109.50000 418.400000
3654 12124 3656 1 109.50000 418.400000
3654 12124 3657 1 109.50000 418.400000
3654 12124 4332 1 109.50000 418.400000
3656 12124 3657 1 109.50000 418.400000
3656 12124 4332 1 109.50000 418.400000
3657 12124 4332 1 109.50000 418.400000
1744 12125 3658 1 109.50000 418.400000
1744 12125 3659 1 109.50000 418.400000
1744 12125 3660 1 109.50000 418.400000
3658 12125 3659 1 109.50000 418.400000
3658 12125 3660 1 109.50000 418.400000
3659 12125 3660 1 109.50000 418.400000
3032 12126 3661 1 109.50000 418.400000
3032 12126 3662 1 109.50000 418.400000
3032 12126 3663 1 109.50000 418.400000
3661 12126 3662 1 109.50000 418.400000
3661 12126 3663 1 109.50000 418.400000
3662 12126 3663 1 109.50000 418.400000
3664 12127 3665 1 109.50000 418.400000
3664 12127 3666 1 109.50000 418.400000
3664 12127 3667 1 109.50000 418.400000
3665 12127 3666 1 109.50000 418.400000
3665 12127 3667 1 109.50000 418.400000
3666 12127 3667 1 109.50000 418.400000
3668 12128 3669 1 109.50000 418.400000
3668 12128 3670 1 109.50000 418.400000
3668 12128 3671 1 109.50000 418.400000
3669 12128 3670 1 109.50000 418.400000
3669 12128 3671 1 109.50000 418.400000
3670 12128 3671 1 109.50000 418.400000
3672 12129 3673 1 109.50000 418.400000
3672 12129 3674 1 109.50000 418.400000
3672 12129 3675 1 109.50000 418.400000
3673 12129 3674 1 109.50000 418.400000
3673 12129 3675 1 109.50000 418.400000
3674 12129 3675 1 109.50000 418.400000
2216 12130 3678 1 109.50000 418.400000
2216 12130 3679 1 109.50000 418.400000
2216 12130 3680 1 109.50000 418.400000
3678 12130 3679 1 109.50000 418.400000
3678 12130 3680 1 109.50000 418.400000
3679 12130 3680 1 109.50000 418.400000
1802 12131 3274 1 109.50000 418.400000
1802 12131 3681 1 109.50000 418.400000
1802 12131 3682 1 109.50000 418.400000
3274 12131 3681 1 109.50000 418.400000
3274 12131 3682 1 109.50000 418.400000
3681 12131 3682 1 109.50000 418.400000
822 12132 3683 1 109.50000 418.400000
822 12132 3684 1 109.50000 418.400000
822 12132 3685 1 109.50000 418.400000
3683 12132 3684 1 109.50000 418.400000
3683 12132 3685 1 109.50000 418.400000
3684 12132 3685 1 109.50000 418.400000
2082 12133 2857 1 109.50000 418.400000
2082 12133 3686 1 109.50000 418.400000
2082 12133 3687 1 109.50000 418.400000
2857 12133 3686 1 109.50000 418.400000
2857 12133 3687 1 109.50000 418.400000
3686 12133 3687 1 109.50000 418.400000
2088 12134 3688 1 109.50000 418.400000
2088 12134 3689 1 109.50000 418.400000
2088 12134 3690 1 109.50000 418.400000
3688 12134 3689 1 109.50000 418.400000
3688 12134 3690 1 109.50000 418.400000
3689 12134 3690 1 109.50000 418.400000
1845 12135 3691 1 109.50000 418.400000
1845 12135 3692 1 109.50000 418.400000
1845 12135 3693 1 109.50000 418.400000
3691 12135 3692 1 109.50000 418.400000
3691 12135 3693 1 109.50000 418.400000
3692 12135 3693 1 109.50000 418.400000
3694 12136 3695 1 109.50000 418.400000
3694 12136 3696 1 109.50000 418.400000
3694 12136 3697 1 109.50000 418.400000
3695 12136 3696 1 109.50000 418.400000
3695 12136 3697 1 109.50000 418.400000
3696 12136 3697 1 109.50000 418.400000
3698 12137 3699 1 109.50000 418.400000
3698 12137 3700 1 109.50000 418.400000
3698 12137 3701 1 109.50000 418.400000
3699 12137 3700 1 109.50000 418.400000
3699 12137 3701 1 109.50000 418.400000
3700 12137 3701 1 109.50000 418.400000
950 12138 1396 1 109.50000 418.400000
950 12138 3702 1 109.50000 418.400000
950 12138 3703 1 109.50000 418.400000
1396 12138 3702 1 109.50000 418.400000
1396 12138 3703 1 109.50000 418.400000
3702 12138 3703 1 109.50000 418.400000
3704 12139 3705 1 109.50000 418.400000
3704 12139 3706 1 109.50000 418.400000
3704 12139 3707 1 109.50000 418.400000
3705 12139 3706 1 109.50000 418.400000
3705 12139 3707 1 109.50000 418.400000
3706 12139 3707 1 109.50000 418.400000
3709 12140 3710 1 109.50000 418.400000
3709 12140 3711 1 109.50000 418.400000
3709 12140 10468 1 109.50000 418.400000
3710 12140 3711 1 109.50000 418.400000
3710 12140 10468 1 109.50000 418.400000
3711 12140 10468 1 109.50000 418.400000
3712 12141 3713 1 109.50000 418.400000
3712 12141 3715 1 109.50000 418.400000
3712 12141 6794 1 109.50000 418.400000
3713 12141 3715 1 109.50000 418.400000
3713 12141 6794 1 109.50000 418.400000
3715 12141 6794 1 109.50000 418.400000
3716 12142 3717 1 109.50000 418.400000
3716 12142 3718 1 109.50000 418.400000
3716 12142 3719 1 109.50000 418.400000
3717 12142 3718 1 109.50000 418.400000
3717 12142 3719 1 109.50000 418.400000
3718 12142 3719 1 109.50000 418.400000
1004 12143 3720 1 109.50000 418.400000
1004 12143 3721 1 109.50000 418.400000
1004 12143 3722 1 109.50000 418.400000
3720 12143 3721 1 109.50000 418.400000
3720 12143 3722 1 109.50000 418.400000
3721 12143 3722 1 109.50000 418.400000
673 12144 3723 1 109.50000 418.400000
673 12144 3724 1 109.50000 418.400000
673 12144 3725 1 109.50000 418.400000
3723 12144 3724 1 109.50000 418.400000
3723 12144 3725 1 109.50000 418.400000
3724 12144 3725 1 109.50000 418.400000
2064 12145 2697 1 109.50000 418.400000
2064 12145 3726 1 109.50000 418.400000
2064 12145 3727 1 109.50000 418.400000
2697 12145 3726 1 109.50000 418.400000
2697 12145 3727 1 109.50000 418.400000
3726 12145 3727 1 109.50000 418.400000
3728 12146 3730 1 109.50000 418.400000
3728 12146 3731 1 109.50000 418.400000
3728 12146 6971 1 109.50000 418.400000
3730 12146 3731 1 109.50000 418.400000
3730 12146 6971 1 109.50000 418.400000
3731 12146 6971 1 109.50000 418.400000
3732 12147 3733 1 109.50000 418.400000
3732 12147 3734 1 109.50000 418.400000
3732 12147 3735 1 109.50000 418.400000
3733 12147 3734 1 109.50000 418.400000
3733 12147 3735 1 109.50000 418.400000
3734 12147 3735 1 109.50000 418.400000
18 12148 3738 1 109.50000 418.400000
18 12148 3739 1 109.50000 418.400000
18 12148 3740 1 109.50000 418.400000
3738 12148 3739 1 109.50000 418.400000
3738 12148 3740 1 109.50000 418.400000
3739 12148 3740 1 109.50000 418.400000
3741 12149 3742 1 109.50000 418.400000
3741 12149 3743 1 109.50000 418.400000
3741 12149 3744 1 109.50000 418.400000
3742 12149 3743 1 109.50000 418.400000
3742 12149 3744 1 109.50000 418.400000
3743 12149 3744 1 109.50000 418.400000
3745 12150 3746 1 109.50000 418.400000
3745 12150 3747 1 109.50000 418.400000
3745 12150 3748 1 109.50000 418.400000
3746 12150 3747 1 109.50000 418.400000
3746 12150 3748 1 109.50000 418.400000
3747 12150 3748 1 109.50000 418.400000
1265 12151 3477 1 109.50000 418.400000
1265 12151 3749 1 109.50000 418.400000
1265 12151 3750 1 109.50000 418.400000
3477 12151 3749 1 109.50000 418.400000
3477 12151 3750 1 109.50000 418.400000
3749 12151 3750 1 109.50000 418.400000
3751 12152 3752 1 109.50000 418.400000
3751 12152 3753 1 109.50000 418.400000
3751 12152 3754 1 109.50000 418.400000
3752 12152 3753 1 109.50000 418.400000
3752 12152 3754 1 109.50000 418.400000
3753 12152 3754 1 109.50000 418.400000
3755 12153 3756 1 109.50000 418.400000
3755 12153 3757 1 109.50000 418.400000
3755 12153 3758 1 109.50000 418.400000
3756 12153 3757 1 109.50000 418.400000
3756 12153 3758 1 109.50000 418.400000
3757 12153 3758 1 109.50000 418.400000
2572 12154 2573 1 109.50000 418.400000
2572 12154 3760 1 109.50000 418.400000
2572 12154 3761 1 109.50000 418.400000
2573 12154 3760 1 109.50000 418.400000
2573 12154 3761 1 109.50000 418.400000
3760 12154 3761 1 109.50000 418.400000
2524 12155 3315 1 109.50000 418.400000
2524 12155 3762 1 109.50000 418.400000
2524 12155 3763 1 109.50000 418.400000
3315 12155 3762 1 109.50000 418.400000
3315 12155 3763 1 109.50000 418.400000
3762 12155 3763 1 109.50000 418.400000
1134 12156 1152 1 109.50000 418.400000
1134 12156 3764 1 109.50000 418.400000
1134 12156 3765 1 109.50000 418.400000
1152 12156 3764 1 109.50000 418.400000
1152 12156 3765 1 109.50000 418.400000
3764 12156 3765 1 109.50000 418.400000
3766 12157 3767 1 109.50000 418.400000
3766 12157 3768 1 109.50000 418.400000
3766 12157 3769 1 109.50000 418.400000
3767 12157 3768 1 109.50000 418.400000
3767 12157 3769 1 109.50000 418.400000
3768 12157 3769 1 109.50000 418.400000
958 12158 960 1 109.50000 418.400000
958 12158 2190 1 109.50000 418.400000
958 12158 2818 1 109.50000 418.400000
960 12158 2190 1 109.50000 418.400000
960 12158 2818 1 109.50000 418.400000
2190 12158 2818 1 109.50000 418.400000
1069 12159 3773 1 109.50000 418.400000
1069 12159 3774 1 109.50000 418.400000
1069 12159 3775 1 109.50000 418.400000
3773 12159 3774 1 109.50000 418.400000
3773 12159 3775 1 109.50000 418.400000
3774 12159 3775 1 109.50000 418.400000
3776 12160 3777 1 109.50000 418.400000
3776 12160 3778 1 109.50000 418.400000
3776 12160 3779 1 109.50000 418.400000
3777 12160 3778 1 109.50000 418.400000
3777 12160 3779 1 109.50000 418.400000
3778 12160 3779 1 109.50000 418.400000
3780 12161 3781 1 109.50000 418.400000
3780 12161 3782 1 109.50000 418.400000
3780 12161 3783 1 109.50000 418.400000
3781 12161 3782 1 109.50000 418.400000
3781 12161 3783 1 109.50000 418.400000
3782 12161 3783 1 109.50000 418.400000
2972 12162 3784 1 109.50000 418.400000
2972 12162 3785 1 109.50000 418.400000
2972 12162 3786 1 109.50000 418.400000
3784 12162 3785 1 109.50000 418.400000
3784 12162 3786 1 109.50000 418.400000
3785 12162 3786 1 109.50000 418.400000
3787 12163 3788 1 109.50000 418.400000
3787 12163 3789 1 109.50000 418.400000
3787 12163 3805 1 109.50000 418.400000
3788 12163 3789 1 109.50000 418.400000
3788 12163 3805 1 109.50000 418.400000
3789 12163 3805 1 109.50000 418.400000
2268 12164 3790 1 109.50000 418.400000
2268 12164 3791 1 109.50000 418.400000
2268 12164 3792 1 109.50000 418.400000
3790 12164 3791 1 109.50000 418.400000
3790 12164 3792 1 109.50000 418.400000
3791 12164 3792 1 109.50000 418.400000
3793 12165 3794 1 109.50000 418.400000
3793 12165 3795 1 109.50000 418.400000
3793 12165 3796 1 109.50000 418.400000
3794 12165 3795 1 109.50000 418.400000
3794 12165 3796 1 109.50000 418.400000
3795 12165 3796 1 109.50000 418.400000
3797 12166 3798 1 109.50000 418.400000
3797 12166 3799 1 109.50000 418.400000
3797 12166 3800 1 109.50000 418.400000
3798 12166 3799 1 109.50000 418.400000
3798 12166 3800 1 109.50000 418.400000
3799 12166 3800 1 109.50000 418.400000
3801 12167 3802 1 109.50000 418.400000
3801 12167 3803 1 109.50000 418.400000
3801 12167 3804 1 109.50000 418.400000
3802 12167 3803 1 109.50000 418.400000
3802 12167 3804 1 109.50000 418.400000
3803 12167 3804 1 109.50000 418.400000
3196 12168 3788 1 109.50000 418.400000
3196 12168 3806 1 109.50000 418.400000
3196 12168 3807 1 109.50000 418.400000
3788 12168 3806 1 109.50000 418.400000
3788 12168 3807 1 109.50000 418.400000
3806 12168 3807 1 109.50000 418.400000
3808 12169 3809 1 109.50000 418.400000
3808 12169 3810 1 109.50000 418.400000
3808 12169 3811 1 109.50000 418.400000
3809 12169 3810 1 109.50000 418.400000
3809 12169 3811 1 109.50000 418.400000
3810 12169 3811 1 109.50000 418.400000
3813 12170 3814 1 109.50000 418.400000
3813 12170 3815 1 109.50000 418.400000
3813 12170 9228 1 109.50000 418.400000
3814 12170 3815 1 109.50000 418.400000
3814 12170 9228 1 109.50000 418.400000
3815 12170 9228 1 109.50000 418.400000
1627 12171 3816 1 109.50000 418.400000
1627 12171 3817 1 109.50000 418.400000
1627 12171 3818 1 109.50000 418.400000
3816 12171 3817 1 109.50000 418.400000
3816 12171 3818 1 109.50000 418.400000
3817 12171 3818 1 109.50000 418.400000
3819 12172 3820 1 109.50000 418.400000
3819 12172 3821 1 109.50000 418.400000
3819 12172 3822 1 109.50000 418.400000
3820 12172 3821 1 109.50000 418.400000
3820 12172 3822 1 109.50000 418.400000
3821 12172 3822 1 109.50000 418.400000
2479 12173 3823 1 109.50000 418.400000
2479 12173 3824 1 109.50000 418.400000
2479 12173 3825 1 109.50000 418.400000
3823 12173 3824 1 109.50000 418.400000
3823 12173 3825 1 109.50000 418.400000
3824 12173 3825 1 109.50000 418.400000
591 12174 3826 1 109.50000 418.400000
591 12174 3827 1 109.50000 418.400000
591 12174 3828 1 109.50000 418.400000
3826 12174 3827 1 109.50000 418.400000
3826 12174 3828 1 109.50000 418.400000
3827 12174 3828 1 109.50000 418.400000
2974 12175 3829 1 109.50000 418.400000
2974 12175 3830 1 109.50000 418.400000
2974 12175 3831 1 109.50000 418.400000
3829 12175 3830 1 109.50000 418.400000
3829 12175 3831 1 109.50000 418.400000
3830 12175 3831 1 109.50000 418.400000
3832 12176 3834 1 109.50000 418.400000
3832 12176 4789 1 109.50000 418.400000
3832 12176 9939 1 109.50000 418.400000
3834 12176 4789 1 109.50000 418.400000
3834 12176 9939 1 109.50000 418.400000
4789 12176 9939 1 109.50000 418.400000
2723 12177 3835 1 109.50000 418.400000
2723 12177 3836 1 109.50000 418.400000
2723 12177 3837 1 109.50000 418.400000
3835 12177 3836 1 109.50000 418.400000
3835 12177 3837 1 109.50000 418.400000
3836 12177 3837 1 109.50000 418.400000
3838 12178 3839 1 109.50000 418.400000
3838 12178 3840 1 109.50000 418.400000
3838 12178 3841 1 109.50000 418.400000
3839 12178 3840 1 109.50000 418.400000
3839 12178 3841 1 109.50000 418.400000
3840 12178 3841 1 109.50000 418.400000
3063 12179 3842 1 109.50000 418.400000
3063 12179 3843 1 109.50000 418.400000
3063 12179 3844 1 109.50000 418.400000
3842 12179 3843 1 109.50000 418.400000
3842 12179 3844 1 109.50000 418.400000
3843 12179 3844 1 109.50000 418.400000
3845 12180 3846 1 109.50000 418.400000
3845 12180 3847 1 109.50000 418.400000
3845 12180 3848 1 109.50000 418.400000
3846 12180 3847 1 109.50000 418.400000
3846 12180 3848 1 109.50000 418.400000
3847 12180 3848 1 109.50000 418.400000
1588 12181 3849 1 109.50000 418.400000
1588 12181 3850 1 109.50000 418.400000
1588 12181 3851 1 109.50000 418.400000
3849 12181 3850 1 109.50000 418.400000
3849 12181 3851 1 109.50000 418.400000
3850 12181 3851 1 109.50000 418.400000
1659 12182 3852 1 109.50000 418.400000
1659 12182 3853 1 109.50000 418.400000
1659 12182 3854 1 109.50000 418.400000
3852 12182 3853 1 109.50000 418.400000
3852 12182 3854 1 109.50000 418.400000
3853 12182 3854 1 109.50000 418.400000
3855 12183 3856 1 109.50000 418.400000
3855 12183 3857 1 109.50000 418.400000
3855 12183 3858 1 109.50000 418.400000
3856 12183 3857 1 109.50000 418.400000
3856 12183 3858 1 109.50000 418.400000
3857 12183 3858 1 109.50000 418.400000
3859 12184 3860 1 109.50000 418.400000
3859 12184 3861 1 109.50000 418.400000
3859 12184 3862 1 109.50000 418.400000
3860 12184 3861 1 109.50000 418.400000
3860 12184 3862 1 109.50000 418.400000
3861 12184 3862 1 109.50000 418.400000
3863 12185 3864 1 109.50000 418.400000
3863 12185 3865 1 109.50000 418.400000
3863 12185 3866 1 109.50000 418.400000
3864 12185 3865 1 109.50000 418.400000
3864 12185 3866 1 109.50000 418.400000
3865 12185 3866 1 109.50000 418.400000
1608 12186 2333 1 109.50000 418.400000
1608 12186 3867 1 109.50000 418.400000
1608 12186 3868 1 109.50000 418.400000
2333 12186 3867 1 109.50000 418.400000
2333 12186 3868 1 109.50000 418.400000
3867 12186 3868 1 109.50000 418.400000
739 12187 1767 1 109.50000 418.400000
739 12187 3563 1 109.50000 418.400000
739 12187 3869 1 109.50000 418.400000
1767 12187 3563 1 109.50000 418.400000
1767 12187 3869 1 109.50000 418.400000
3563 12187 3869 1 109.50000 418.400000
3805 12188 3870 1 109.50000 418.400000
3805 12188 3871 1 109.50000 418.400000
3805 12188 3872 1 109.50000 418.400000
3870 12188 3871 1 109.50000 418.400000
3870 12188 3872 1 109.50000 418.400000
3871 12188 3872 1 109.50000 418.400000
3873 12189 3874 1 109.50000 418.400000
3873 12189 3875 1 109.50000 418.400000
3873 12189 3876 1 109.50000 418.400000
3874 12189 3875 1 109.50000 418.400000
3874 12189 3876 1 109.50000 418.400000
3875 12189 3876 1 109.50000 418.400000
3882 12190 3883 1 109.50000 418.400000
3882 12190 3884 1 109.50000 418.400000
3882 12190 3885 1 109.50000 418.400000
3883 12190 3884 1 109.50000 418.400000
3883 12190 3885 1 109.50000 418.400000
3884 12190 3885 1 109.50000 418.400000
200 12191 3886 1 109.50000 418.400000
200 12191 3887 1 109.50000 418.400000
200 12191 3888 1 109.50000 418.400000
3886 12191 3887 1 109.50000 418.400000
3886 12191 3888 1 109.50000 418.400000
3887 12191 3888 1 109.50000 418.400000
738 12192 3889 1 109.50000 418.400000
738 12192 3890 1 109.50000 418.400000
738 12192 3891 1 109.50000 418.400000
3889 12192 3890 1 109.50000 418.400000
3889 12192 3891 1 109.50000 418.400000
3890 12192 3891 1 109.50000 418.400000
3250 12193 3892 1 109.50000 418.400000
3250 12193 3893 1 109.50000 418.400000
3250 12193 3894 1 109.50000 418.400000
3892 12193 3893 1 109.50000 418.400000
3892 12193 3894 1 109.50000 418.400000
3893 12193 3894 1 109.50000 418.400000
3895 12194 3896 1 109.50000 418.400000
3895 12194 3897 1 109.50000 418.400000
3895 12194 3898 1 109.50000 418.400000
3896 12194 3897 1 109.50000 418.400000
3896 12194 3898 1 109.50000 418.400000
3897 12194 3898 1 109.50000 418.400000
457 12195 3899 1 109.50000 418.400000
457 12195 3900 1 109.50000 418.400000
457 12195 3901 1 109.50000 418.400000
3899 12195 3900 1 109.50000 418.400000
3899 12195 3901 1 109.50000 418.400000
3900 12195 3901 1 109.50000 418.400000
3902 12196 3903 1 109.50000 418.400000
3902 12196 3904 1 109.50000 418.400000
3902 12196 3905 1 109.50000 418.400000
3903 12196 3904 1 109.50000 418.400000
3903 12196 3905 1 109.50000 418.400000
3904 12196 3905 1 109.50000 418.400000
3906 12197 3907 1 109.50000 418.400000
3906 12197 3908 1 109.50000 418.400000
3906 12197 3909 1 109.50000 418.400000
3907 12197 3908 1 109.50000 418.400000
3907 12197 3909 1 109.50000 418.400000
3908 12197 3909 1 109.50000 418.400000
3600 12198 3910 1 109.50000 418.400000
3600 12198 3911 1 109.50000 418.400000
3600 12198 3912 1 109.50000 418.400000
3910 12198 3911 1 109.50000 418.400000
3910 12198 3912 1 109.50000 418.400000
3911 12198 3912 1 109.50000 418.400000
370 12199 3754 1 109.50000 418.400000
370 12199 3913 1 109.50000 418.400000
370 12199 3914 1 109.50000 418.400000
3754 12199 3913 1 109.50000 418.400000
3754 12199 3914 1 109.50000 418.400000
3913 12199 3914 1 109.50000 418.400000
3915 12200 3916 1 109.50000 418.400000
3915 12200 3917 1 109.50000 418.400000
3915 12200 3918 1 109.50000 418.400000
3916 12200 3917 1 109.50000 418.400000
3916 12200 3918 1 109.50000 418.400000
3917 12200 3918 1 109.50000 418.400000
3920 12201 3921 1 109.50000 418.400000
3920 12201 7085 1 109.50000 418.400000
3920 12201 8211 1 109.50000 418.400000
3921 12201 7085 1 109.50000 418.400000
3921 12201 8211 1 109.50000 418.400000
7085 12201 8211 1 109.50000 418.400000
537 12202 727 1 109.50000 418.400000
537 12202 2894 1 109.50000 418.400000
537 12202 3923 1 109.50000 418.400000
727 12202 2894 1 109.50000 418.400000
727 12202 3923 1 109.50000 418.400000
2894 12202 3923 1 109.50000 418.400000
3706 12203 3924 1 109.50000 418.400000
3706 12203 3925 1 109.50000 418.400000
3706 12203 3926 1 109.50000 418.400000
3924 12203 3925 1 109.50000 418.400000
3924 12203 3926 1 109.50000 418.400000
3925 12203 3926 1 109.50000 418.400000
563 12204 2993 1 109.50000 418.400000
563 12204 3927 1 109.50000 418.400000
563 12204 3928 1 109.50000 418.400000
2993 12204 3927 1 109.50000 418.400000
2993 12204 3928 1 109.50000 418.400000
3927 12204 3928 1 109.50000 418.400000
3931 12205 3932 1 109.50000 418.400000
3931 12205 3933 1 109.50000 418.400000
3931 12205 3934 1 109.50000 418.400000
3932 12205 3933 1 109.50000 418.400000
3932 12205 3934 1 109.50000 418.400000
3933 12205 3934 1 109.50000 418.400000
1741 12206 3937 1 109.50000 418.400000
1741 12206 3938 1 109.50000 418.400000
1741 12206 6861 1 109.50000 418.400000
3937 12206 3938 1 109.50000 418.400000
3937 12206 6861 1 109.50000 418.400000
3938 12206 6861 1 109.50000 418.400000
3939 12207 3940 1 109.50000 418.400000
3939 12207 3941 1 109.50000 418.400000
3939 12207 3942 1 109.50000 418.400000
3940 12207 3941 1 109.50000 418.400000
3940 12207 3942 1 109.50000 418.400000
3941 12207 3942 1 109.50000 418.400000
3279 12208 3943 1 109.50000 418.400000
3279 12208 3944 1 109.50000 418.400000
3279 12208 3945 1 109.50000 418.400000
3943 12208 3944 1 109.50000 418.400000
3943 12208 3945 1 109.50000 418.400000
3944 12208 3945 1 109.50000 418.400000
1423 12209 1957 1 109.50000 418.400000
1423 12209 3249 1 109.50000 418.400000
1423 12209 3946 1 109.50000 418.400000
1957 12209 3249 1 109.50000 418.400000
1957 12209 3946 1 109.50000 418.400000
3249 12209 3946 1 109.50000 418.400000
103 12210 3947 1 109.50000 418.400000
103 12210 3948 1 109.50000 418.400000
103 12210 3949 1 109.50000 418.400000
3947 12210 3948 1 109.50000 418.400000
3947 12210 3949 1 109.50000 418.400000
3948 12210 3949 1 109.50000 418.400000
3950 12211 3951 1 109.50000 418.400000
3950 12211 3952 1 109.50000 418.400000
3950 12211 3953 1 109.50000 418.400000
3951 12211 3952 1 109.50000 418.400000
3951 12211 3953 1 109.50000 418.400000
3952 12211 3953 1 109.50000 418.400000
3954 12212 3955 1 109.50000 418.400000
3954 12212 3957 1 109.50000 418.400000
3954 12212 7409 1 109.50000 418.400000
3955 12212 3957 1 109.50000 418.400000
3955 12212 7409 1 109.50000 418.400000
3957 12212 7409 1 109.50000 418.400000
2526 12213 3670 1 109.50000 418.400000
2526 12213 3958 1 109.50000 418.400000
2526 12213 3959 1 109.50000 418.400000
3670 12213 3958 1 109.50000 418.400000
3670 12213 3959 1 109.50000 418.400000
3958 12213 3959 1 109.50000 418.400000
882 12214 1547 1 109.50000 418.400000
882 12214 3960 1 109.50000 418.400000
882 12214 3961 1 109.50000 418.400000
1547 12214 3960 1 109.50000 418.400000
1547 12214 3961 1 109.50000 418.400000
3960 12214 3961 1 109.50000 418.400000
3962 12215 3963 1 109.50000 418.400000
3962 12215 3964 1 109.50000 418.400000
3962 12215 3965 1 109.50000 418.400000
3963 12215 3964 1 109.50000 418.400000
3963 12215 3965 1 109.50000 418.400000
3964 12215 3965 1 109.50000 418.400000
3966 12216 3967 1 109.50000 418.400000
3966 12216 3968 1 109.50000 418.400000
3966 12216 3969 1 109.50000 418.400000
3967 12216 3968 1 109.50000 418.400000
3967 12216 3969 1 109.50000 418.400000
3968 12216 3969 1 109.50000 418.400000
1568 12217 1569 1 109.50000 418.400000
1568 12217 3970 1 109.50000 418.400000
1568 12217 3971 1 109.50000 418.400000
1569 12217 3970 1 109.50000 418.400000
1569 12217 3971 1 109.50000 418.400000
3970 12217 3971 1 109.50000 418.400000
3973 12218 3974 1 109.50000 418.400000
3973 12218 3975 1 109.50000 418.400000
3973 12218 3976 1 109.50000 418.400000
3974 12218 3975 1 109.50000 418.400000
3974 12218 3976 1 109.50000 418.400000
3975 12218 3976 1 109.50000 418.400000
634 12219 3977 1 109.50000 418.400000
634 12219 3978 1 109.50000 418.400000
634 12219 9486 1 109.50000 418.400000
3977 12219 3978 1 109.50000 418.400000
3977 12219 9486 1 109.50000 418.400000
3978 12219 9486 1 109.50000 418.400000
1345 12220 3979 1 109.50000 418.400000
1345 12220 3980 1 109.50000 418.400000
1345 12220 3981 1 109.50000 418.400000
3979 12220 3980 1 109.50000 418.400000
3979 12220 3981 1 109.50000 418.400000
3980 12220 3981 1 109.50000 418.400000
3905 12221 3982 1 109.50000 418.400000
3905 12221 3983 1 109.50000 418.400000
3905 12221 3984 1 109.50000 418.400000
3982 12221 3983 1 109.50000 418.400000
3982 12221 3984 1 109.50000 418.400000
3983 12221 3984 1 109.50000 418.400000
3985 12222 3986 1 109.50000 418.400000
3985 12222 3987 1 109.50000 418.400000
3985 12222 3988 1 109.50000 418.400000
3986 12222 3987 1 109.50000 418.400000
3986 12222 3988 1 109.50000 418.400000
3987 12222 3988 1 109.50000 418.400000
3989 12223 3990 1 109.50000 418.400000
3989 12223 3991 1 109.50000 418.400000
3989 12223 3992 1 109.50000 418.400000
3990 12223 3991 1 109.50000 418.400000
3990 12223 3992 1 109.50000 418.400000
3991 12223 3992 1 109.50000 418.400000
3993 12224 3994 1 109.50000 418.400000
3993 12224 3995 1 109.50000 418.400000
3993 12224 3996 1 109.50000 418.400000
3994 12224 3995 1 109.50000 418.400000
3994 12224 3996 1 109.50000 418.400000
3995 12224 3996 1 109.50000 418.400000
2075 12225 3997 1 109.50000 418.400000
2075 12225 3998 1 109.50000 418.400000
2075 12225 3999 1 109.50000 418.400000
3997 12225 3998 1 109.50000 418.400000
3997 12225 3999 1 109.50000 418.400000
3998 12225 3999 1 109.50000 418.400000
1019 12226 4000 1 109.50000 418.400000
1019 12226 4001 1 109.50000 418.400000
1019 12226 4002 1 109.50000 418.400000
4000 12226 4001 1 109.50000 418.400000
4000 12226 4002 1 109.50000 418.400000
4001 12226 4002 1 109.50000 418.400000
577 12227 1841 1 109.50000 418.400000
577 12227 4003 1 109.50000 418.400000
577 12227 4004 1 109.50000 418.400000
1841 12227 4003 1 109.50000 418.400000
1841 12227 4004 1 109.50000 418.400000
4003 12227 4004 1 109.50000 418.400000
4005 12228 4006 1 109.50000 418.400000
4005 12228 4007 1 109.50000 418.400000
4005 12228 4008 1 109.50000 418.400000
4006 12228 4007 1 109.50000 418.400000
4006 12228 4008 1 109.50000 418.400000
4007 12228 4008 1 109.50000 418.400000
1273 12229 4009 1 109.50000 418.400000
1273 12229 4010 1 109.50000 418.400000
1273 12229 4011 1 109.50000 418.400000
4009 12229 4010 1 109.50000 418.400000
4009 12229 4011 1 109.50000 418.400000
4010 12229 4011 1 109.50000 418.400000
1773 12230 3971 1 109.50000 418.400000
1773 12230 4012 1 109.50000 418.400000
1773 12230 4013 1 109.50000 418.400000
3971 12230 4012 1 109.50000 418.400000
3971 12230 4013 1 109.50000 418.400000
4012 12230 4013 1 109.50000 418.400000
4014 12231 4015 1 109.50000 418.400000
4014 12231 4016 1 109.50000 418.400000
4014 12231 11171 1 109.50000 418.400000
4015 12231 4016 1 109.50000 418.400000
4015 12231 11171 1 109.50000 418.400000
4016 12231 11171 1 109.50000 418.400000
2531 12232 4019 1 109.50000 418.400000
2531 12232 4020 1 109.50000 418.400000
2531 12232 4021 1 109.50000 418.400000
4019 12232 4020 1 109.50000 418.400000
4019 12232 4021 1 109.50000 418.400000
4020 12232 4021 1 109.50000 418.400000
4023 12233 4024 1 109.50000 418.400000
4023 12233 4025 1 109.50000 418.400000
4023 12233 10492 1 109.50000 418.400000
4024 12233 4025 1 109.50000 418.400000
4024 12233 10492 1 109.50000 418.400000
4025 12233 10492 1 109.50000 418.400000
3308 12234 4026 1 109.50000 418.400000
3308 12234 6468 1 109.50000 418.400000
3308 12234 6470 1 109.50000 418.400000
4026 12234 6468 1 109.50000 418.400000
4026 12234 6470 1 109.50000 418.400000
6468 12234 6470 1 109.50000 418.400000
895 12235 897 1 109.50000 418.400000
895 12235 4031 1 109.50000 418.400000
895 12235 4032 1 109.50000 418.400000
897 12235 4031 1 109.50000 418.400000
897 12235 4032 1 109.50000 418.400000
4031 12235 4032 1 109.50000 418.400000
4035 12236 4037 1 109.50000 418.400000
4035 12236 4038 1 109.50000 418.400000
4035 12236 9062 1 109.50000 418.400000
4037 12236 4038 1 109.50000 418.400000
4037 12236 9062 1 109.50000 418.400000
4038 12236 9062 1 109.50000 418.400000
10 12237 507 1 109.50000 418.400000
10 12237 4039 1 109.50000 418.400000
10 12237 4040 1 109.50000 418.400000
507 12237 4039 1 109.50000 418.400000
507 12237 4040 1 109.50000 418.400000
4039 12237 4040 1 109.50000 418.400000
1708 12238 4043 1 109.50000 418.400000
1708 12238 4044 1 109.50000 418.400000
1708 12238 4045 1 109.50000 418.400000
4043 12238 4044 1 109.50000 418.400000
4043 12238 4045 1 109.50000 418.400000
4044 12238 4045 1 109.50000 418.400000
3026 12239 4046 1 109.50000 418.400000
3026 12239 4047 1 109.50000 418.400000
3026 12239 4048 1 109.50000 418.400000
4046 12239 4047 1 109.50000 418.400000
4046 12239 4048 1 109.50000 418.400000
4047 12239 4048 1 109.50000 418.400000
4049 12240 4050 1 109.50000 418.400000
4049 12240 4051 1 109.50000 418.400000
4049 12240 4052 1 109.50000 418.400000
4050 12240 4051 1 109.50000 418.400000
4050 12240 4052 1 109.50000 418.400000
4051 12240 4052 1 109.50000 418.400000
62 12241 4053 1 109.50000 418.400000
62 12241 4054 1 109.50000 418.400000
62 12241 4055 1 109.50000 418.400000
4053 12241 4054 1 109.50000 418.400000
4053 12241 4055 1 109.50000 418.400000
4054 12241 4055 1 109.50000 418.400000
2032 12242 4056 1 109.50000 418.400000
2032 12242 4057 1 109.50000 418.400000
2032 12242 4058 1 109.50000 418.400000
4056 12242 4057 1 109.50000 418.400000
4056 12242 4058 1 109.50000 418.400000
4057 12242 4058 1 109.50000 418.400000
78 12243 4059 1 109.50000 418.400000
78 12243 4060 1 109.50000 418.400000
78 12243 4061 1 109.50000 418.400000
4059 12243 4060 1 109.50000 418.400000
4059 12243 4061 1 109.50000 418.400000
4060 12243 4061 1 109.50000 418.400000
4062 12244 4063 1 109.50000 418.400000
4062 12244 4064 1 109.50000 418.400000
4062 12244 4065 1 109.50000 418.400000
4063 12244 4064 1 109.50000 418.400000
4063 12244 4065 1 109.50000 418.400000
4064 12244 4065 1 109.50000 418.400000
3193 12245 4066 1 109.50000 418.400000
3193 12245 4068 1 109.50000 418.400000
3193 12245 5893 1 109.50000 418.400000
4066 12245 4068 1 109.50000 418.400000
4066 12245 5893 1 109.50000 418.400000
4068 12245 5893 1 109.50000 418.400000
2941 12246 2943 1 109.50000 418.400000
2941 12246 3652 1 109.50000 418.400000
2941 12246 4069 1 109.50000 418.400000
2943 12246 3652 1 109.50000 418.400000
2943 12246 4069 1 109.50000 418.400000
3652 12246 4069 1 109.50000 418.400000
4070 12247 4071 1 109.50000 418.400000
4070 12247 4072 1 109.50000 418.400000
4070 12247 4073 1 109.50000 418.400000
4071 12247 4072 1 109.50000 418.400000
4071 12247 4073 1 109.50000 418.400000
4072 12247 4073 1 109.50000 418.400000
2715 12248 4074 1 109.50000 418.400000
2715 12248 4075 1 109.50000 418.400000
2715 12248 4076 1 109.50000 418.400000
4074 12248 4075 1 109.50000 418.400000
4074 12248 4076 1 109.50000 418.400000
4075 12248 4076 1 109.50000 418.400000
4077 12249 4078 1 109.50000 418.400000
4077 12249 4079 1 109.50000 418.400000
4077 12249 4080 1 109.50000 418.400000
4078 12249 4079 1 109.50000 418.400000
4078 12249 4080 1 109.50000 418.400000
4079 12249 4080 1 109.50000 418.400000
1696 12250 1697 1 109.50000 418.400000
1696 12250 4082 1 109.50000 418.400000
1696 12250 4083 1 109.50000 418.400000
1697 12250 4082 1 109.50000 418.400000
1697 12250 4083 1 109.50000 418.400000
4082 12250 4083 1 109.50000 418.400000
2233 12251 2342 1 109.50000 418.400000
2233 12251 4084 1 109.50000 418.400000
2233 12251 4085 1 109.50000 418.400000
2342 12251 4084 1 109.50000 418.400000
2342 12251 4085 1 109.50000 418.400000
4084 12251 4085 1 109.50000 418.400000
1331 12252 4086 1 109.50000 418.400000
1331 12252 4087 1 109.50000 418.400000
1331 12252 4088 1 109.50000 418.400000
4086 12252 4087 1 109.50000 418.400000
4086 12252 4088 1 109.50000 418.400000
4087 12252 4088 1 109.50000 418.400000
3360 12253 4089 1 109.50000 418.400000
3360 12253 4090 1 109.50000 418.400000
3360 12253 4091 1 109.50000 418.400000
4089 12253 4090 1 109.50000 418.400000
4089 12253 4091 1 109.50000 418.400000
4090 12253 4091 1 109.50000 418.400000
4092 12254 4093 1 109.50000 418.400000
4092 12254 4094 1 109.50000 418.400000
4092 12254 4095 1 109.50000 418.400000
4093 12254 4094 1 109.50000 418.400000
4093 12254 4095 1 109.50000 418.400000
4094 12254 4095 1 109.50000 418.400000
4096 12255 4097 1 109.50000 418.400000
4096 12255 4098 1 109.50000 418.400000
4096 12255 4099 1 109.50000 418.400000
4097 12255 4098 1 109.50000 418.400000
4097 12255 4099 1 109.50000 418.400000
4098 12255 4099 1 109.50000 418.400000
409 12256 1379 1 109.50000 418.400000
409 12256 4100 1 109.50000 418.400000
409 12256 6959 1 109.50000 418.400000
1379 12256 4100 1 109.50000 418.400000
1379 12256 6959 1 109.50000 418.400000
4100 12256 6959 1 109.50000 418.400000
4044 12257 4104 1 109.50000 418.400000
4044 12257 4105 1 109.50000 418.400000
4044 12257 4106 1 109.50000 418.400000
4104 12257 4105 1 109.50000 418.400000
4104 12257 4106 1 109.50000 418.400000
4105 12257 4106 1 109.50000 418.400000
1252 12258 1278 1 109.50000 418.400000
1252 12258 4112 1 109.50000 418.400000
1252 12258 4113 1 109.50000 418.400000
1278 12258 4112 1 109.50000 418.400000
1278 12258 4113 1 109.50000 418.400000
4112 12258 4113 1 109.50000 418.400000
4114 12259 4115 1 109.50000 418.400000
4114 12259 4116 1 109.50000 418.400000
4114 12259 4117 1 109.50000 418.400000
4115 12259 4116 1 109.50000 418.400000
4115 12259 4117 1 109.50000 418.400000
4116 12259 4117 1 109.50000 418.400000
1469 12260 1471 1 109.50000 418.400000
1469 12260 4118 1 109.50000 418.400000
1469 12260 4119 1 109.50000 418.400000
1471 12260 4118 1 109.50000 418.400000
1471 12260 4119 1 109.50000 418.400000
4118 12260 4119 1 109.50000 418.400000
4120 12261 4121 1 109.50000 418.400000
4120 12261 4122 1 109.50000 418.400000
4120 12261 4123 1 109.50000 418.400000
4121 12261 4122 1 109.50000 418.400000
4121 12261 4123 1 109.50000 418.400000
4122 12261 4123 1 109.50000 418.400000
4124 12262 4125 1 109.50000 418.400000
4124 12262 4126 1 109.50000 418.400000
4124 12262 4127 1 109.50000 418.400000
4125 12262 4126 1 109.50000 418.400000
4125 12262 4127 1 109.50000 418.400000
4126 12262 4127 1 109.50000 418.400000
1086 12263 1586 1 109.50000 418.400000
1086 12263 4128 1 109.50000 418.400000
1086 12263 4129 1 109.50000 418.400000
1586 12263 4128 1 109.50000 418.400000
1586 12263 4129 1 109.50000 418.400000
4128 12263 4129 1 109.50000 418.400000
1214 12264 2757 1 109.50000 418.400000
1214 12264 4130 1 109.50000 418.400000
1214 12264 4131 1 109.50000 418.400000
2757 12264 4130 1 109.50000 418.400000
2757 12264 4131 1 109.50000 418.400000
4130 12264 4131 1 109.50000 418.400000
1809 12265 4132 1 109.50000 418.400000
1809 12265 4133 1 109.50000 418.400000
1809 12265 4134 1 109.50000 418.400000
4132 12265 4133 1 109.50000 418.400000
4132 12265 4134 1 109.50000 418.400000
4133 12265 4134 1 109.50000 418.400000
3168 12266 4135 1 109.50000 418.400000
3168 12266 4136 1 109.50000 418.400000
3168 12266 4137 1 109.50000 418.400000
4135 12266 4136 1 109.50000 418.400000
4135 12266 4137 1 109.50000 418.400000
4136 12266 4137 1 109.50000 418.400000
196 12267 4138 1 109.50000 418.400000
196 12267 4139 1 109.50000 418.400000
196 12267 4140 1 109.50000 418.400000
4138 12267 4139 1 109.50000 418.400000
4138 12267 4140 1 109.50000 418.400000
4139 12267 4140 1 109.50000 418.400000
4141 12268 4142 1 109.50000 418.400000
4141 12268 4143 1 109.50000 418.400000
4141 12268 4144 1 109.50000 418.400000
4142 12268 4143 1 109.50000 418.400000
4142 12268 4144 1 109.50000 418.400000
4143 12268 4144 1 109.50000 418.400000
4145 12269 4146 1 109.50000 418.400000
4145 12269 4147 1 109.50000 418.400000
4145 12269 4148 1 109.50000 418.400000
4146 12269 4147 1 109.50000 418.400000
4146 12269 4148 1 109.50000 418.400000
4147 12269 4148 1 109.50000 418.400000
2453 12270 3542 1 109.50000 418.400000
2453 12270 4149 1 109.50000 418.400000
2453 12270 4150 1 109.50000 418.400000
3542 12270 4149 1 109.50000 418.400000
3542 12270 4150 1 109.50000 418.400000
4149 12270 4150 1 109.50000 418.400000
781 12271 4151 1 109.50000 418.400000
781 12271 4152 1 109.50000 418.400000
781 12271 4153 1 109.50000 418.400000
4151 12271 4152 1 109.50000 418.400000
4151 12271 4153 1 109.50000 418.400000
4152 12271 4153 1 109.50000 418.400000
4154 12272 4155 1 109.50000 418.400000
4154 12272 4156 1 109.50000 418.400000
4154 12272 4157 1 109.50000 418.400000
4155 12272 4156 1 109.50000 418.400000
4155 12272 4157 1 109.50000 418.400000
4156 12272 4157 1 109.50000 418.400000
1882 12273 3232 1 109.50000 418.400000
1882 12273 4158 1 109.50000 418.400000
1882 12273 4159 1 109.50000 418.400000
3232 12273 4158 1 109.50000 418.400000
3232 12273 4159 1 109.50000 418.400000
4158 12273 4159 1 109.50000 418.400000
2309 12274 4160 1 109.50000 418.400000
2309 12274 4161 1 109.50000 418.400000
2309 12274 4162 1 109.50000 418.400000
4160 12274 4161 1 109.50000 418.400000
4160 12274 4162 1 109.50000 418.400000
4161 12274 4162 1 109.50000 418.400000
4163 12275 4164 1 109.50000 418.400000
4163 12275 4165 1 109.50000 418.400000
4163 12275 4166 1 109.50000 418.400000
4164 12275 4165 1 109.50000 418.400000
4164 12275 4166 1 109.50000 418.400000
4165 12275 4166 1 109.50000 418.400000
547 12276 4169 1 109.50000 418.400000
547 12276 4170 1 109.50000 418.400000
547 12276 4171 1 109.50000 418.400000
4169 12276 4170 1 109.50000 418.400000
4169 12276 4171 1 109.50000 418.400000
4170 12276 4171 1 109.50000 418.400000
4173 12277 4174 1 109.50000 418.400000
4173 12277 4175 1 109.50000 418.400000
4173 12277 9352 1 109.50000 418.400000
4174 12277 4175 1 109.50000 418.400000
4174 12277 9352 1 109.50000 418.400000
4175 12277 9352 1 109.50000 418.400000
2241 12278 4176 1 109.50000 418.400000
2241 12278 4177 1 109.50000 418.400000
2241 12278 4178 1 109.50000 418.400000
4176 12278 4177 1 109.50000 418.400000
4176 12278 4178 1 109.50000 418.400000
4177 12278 4178 1 109.50000 418.400000
4179 12279 4180 1 109.50000 418.400000
4179 12279 4181 1 109.50000 418.400000
4179 12279 4625 1 109.50000 418.400000
4180 12279 4181 1 109.50000 418.400000
4180 12279 4625 1 109.50000 418.400000
4181 12279 4625 1 109.50000 418.400000
2590 12280 3284 1 109.50000 418.400000
2590 12280 4182 1 109.50000 418.400000
2590 12280 4183 1 109.50000 418.400000
3284 12280 4182 1 109.50000 418.400000
3284 12280 4183 1 109.50000 418.400000
4182 12280 4183 1 109.50000 418.400000
204 12281 2463 1 109.50000 418.400000
204 12281 4184 1 109.50000 418.400000
204 12281 4185 1 109.50000 418.400000
2463 12281 4184 1 109.50000 418.400000
2463 12281 4185 1 109.50000 418.400000
4184 12281 4185 1 109.50000 418.400000
4175 12282 4186 1 109.50000 418.400000
4175 12282 4187 1 109.50000 418.400000
4175 12282 4188 1 109.50000 418.400000
4186 12282 4187 1 109.50000 418.400000
4186 12282 4188 1 109.50000 418.400000
4187 12282 4188 1 109.50000 418.400000
3234 12283 3364 1 109.50000 418.400000
3234 12283 4189 1 109.50000 418.400000
3234 12283 4190 1 109.50000 418.400000
3364 12283 4189 1 109.50000 418.400000
3364 12283 4190 1 109.50000 418.400000
4189 12283 4190 1 109.50000 418.400000
3599 12284 4191 1 109.50000 418.400000
3599 12284 4192 1 109.50000 418.400000
3599 12284 4193 1 109.50000 418.400000
4191 12284 4192 1 109.50000 418.400000
4191 12284 4193 1 109.50000 418.400000
4192 12284 4193 1 109.50000 418.400000
4065 12285 4194 1 109.50000 418.400000
4065 12285 4195 1 109.50000 418.400000
4065 12285 4196 1 109.50000 418.400000
4194 12285 4195 1 109.50000 418.400000
4194 12285 4196 1 109.50000 418.400000
4195 12285 4196 1 109.50000 418.400000
4197 12286 4198 1 109.50000 418.400000
4197 12286 4199 1 109.50000 418.400000
4197 12286 4200 1 109.50000 418.400000
4198 12286 4199 1 109.50000 418.400000
4198 12286 4200 1 109.50000 418.400000
4199 12286 4200 1 109.50000 418.400000
4201 12287 4202 1 109.50000 418.400000
4201 12287 4203 1 109.50000 418.400000
4201 12287 4204 1 109.50000 418.400000
4202 12287 4203 1 109.50000 418.400000
4202 12287 4204 1 109.50000 418.400000
4203 12287 4204 1 109.50000 418.400000
1223 12288 4205 1 109.50000 418.400000
1223 12288 4206 1 109.50000 418.400000
1223 12288 4207 1 109.50000 418.400000
4205 12288 4206 1 109.50000 418.400000
4205 12288 4207 1 109.50000 418.400000
4206 12288 4207 1 109.50000 418.400000
4210 12289 4211 1 109.50000 418.400000
4210 12289 4212 1 109.50000 418.400000
4210 12289 6234 1 109.50000 418.400000
4211 12289 4212 1 109.50000 418.400000
4211 12289 6234 1 109.50000 418.400000
4212 12289 6234 1 109.50000 418.400000
4213 12290 4214 1 109.50000 418.400000
4213 12290 4215 1 109.50000 418.400000
4213 12290 4216 1 109.50000 418.400000
4214 12290 4215 1 109.50000 418.400000
4214 12290 4216 1 109.50000 418.400000
4215 12290 4216 1 109.50000 418.400000
4217 12291 4218 1 109.50000 418.400000
4217 12291 4219 1 109.50000 418.400000
4217 12291 4220 1 109.50000 418.400000
4218 12291 4219 1 109.50000 418.400000
4218 12291 4220 1 109.50000 418.400000
4219 12291 4220 1 109.50000 418.400000
4221 12292 4222 1 109.50000 418.400000
4221 12292 4223 1 109.50000 418.400000
4221 12292 4224 1 109.50000 418.400000
4222 12292 4223 1 109.50000 418.400000
4222 12292 4224 1 109.50000 418.400000
4223 12292 4224 1 109.50000 418.400000
4225 12293 4226 1 109.50000 418.400000
4225 12293 4227 1 109.50000 418.400000
4225 12293 4228 1 109.50000 418.400000
4226 12293 4227 1 109.50000 418.400000
4226 12293 4228 1 109.50000 418.400000
4227 12293 4228 1 109.50000 418.400000
4229 12294 4230 1 109.50000 418.400000
4229 12294 4231 1 109.50000 418.400000
4229 12294 7658 1 109.50000 418.400000
4230 12294 4231 1 109.50000 418.400000
4230 12294 7658 1 109.50000 418.400000
4231 12294 7658 1 109.50000 418.400000
4232 12295 4233 1 109.50000 418.400000
4232 12295 4234 1 109.50000 418.400000
4232 12295 4235 1 109.50000 418.400000
4233 12295 4234 1 109.50000 418.400000
4233 12295 4235 1 109.50000 418.400000
4234 12295 4235 1 109.50000 418.400000
4237 12296 4238 1 109.50000 418.400000
4237 12296 4239 1 109.50000 418.400000
4237 12296 4240 1 109.50000 418.400000
4238 12296 4239 1 109.50000 418.400000
4238 12296 4240 1 109.50000 418.400000
4239 12296 4240 1 109.50000 418.400000
4244 12297 4245 1 109.50000 418.400000
4244 12297 4246 1 109.50000 418.400000
4244 12297 4247 1 109.50000 418.400000
4245 12297 4246 1 109.50000 418.400000
4245 12297 4247 1 109.50000 418.400000
4246 12297 4247 1 109.50000 418.400000
4248 12298 4249 1 109.50000 418.400000
4248 12298 4250 1 109.50000 418.400000
4248 12298 4251 1 109.50000 418.400000
4249 12298 4250 1 109.50000 418.400000
4249 12298 4251 1 109.50000 418.400000
4250 12298 4251 1 109.50000 418.400000
704 12299 4252 1 109.50000 418.400000
704 12299 4253 1 109.50000 418.400000
704 12299 4254 1 109.50000 418.400000
4252 12299 4253 1 109.50000 418.400000
4252 12299 4254 1 109.50000 418.400000
4253 12299 4254 1 109.50000 418.400000
4255 12300 4256 1 109.50000 418.400000
4255 12300 4257 1 109.50000 418.400000
4255 12300 4258 1 109.50000 418.400000
4256 12300 4257 1 109.50000 418.400000
4256 12300 4258 1 109.50000 418.400000
4257 12300 4258 1 109.50000 418.400000
1848 12301 4259 1 109.50000 418.400000
1848 12301 4260 1 109.50000 418.400000
1848 12301 4261 1 109.50000 418.400000
4259 12301 4260 1 109.50000 418.400000
4259 12301 4261 1 109.50000 418.400000
4260 12301 4261 1 109.50000 418.400000
4262 12302 4263 1 109.50000 418.400000
4262 12302 4264 1 109.50000 418.400000
4262 12302 4265 1 109.50000 418.400000
4263 12302 4264 1 109.50000 418.400000
4263 12302 4265 1 109.50000 418.400000
4264 12302 4265 1 109.50000 418.400000
4266 12303 4267 1 109.50000 418.400000
4266 12303 4268 1 109.50000 418.400000
4266 12303 4269 1 109.50000 418.400000
4267 12303 4268 1 109.50000 418.400000
4267 12303 4269 1 109.50000 418.400000
4268 12303 4269 1 109.50000 418.400000
3108 12304 3893 1 109.50000 418.400000
3108 12304 4270 1 109.50000 418.400000
3108 12304 4271 1 109.50000 418.400000
3893 12304 4270 1 109.50000 418.400000
3893 12304 4271 1 109.50000 418.400000
4270 12304 4271 1 109.50000 418.400000
4272 12305 4273 1 109.50000 418.400000
4272 12305 4274 1 109.50000 418.400000
4272 12305 4275 1 109.50000 418.400000
4273 12305 4274 1 109.50000 418.400000
4273 12305 4275 1 109.50000 418.400000
4274 12305 4275 1 109.50000 418.400000
1460 12306 3687 1 109.50000 418.400000
1460 12306 4276 1 109.50000 418.400000
1460 12306 4277 1 109.50000 418.400000
3687 12306 4276 1 109.50000 418.400000
3687 12306 4277 1 109.50000 418.400000
4276 12306 4277 1 109.50000 418.400000
4278 12307 4279 1 109.50000 418.400000
4278 12307 4280 1 109.50000 418.400000
4278 12307 4281 1 109.50000 418.400000
4279 12307 4280 1 109.50000 418.400000
4279 12307 4281 1 109.50000 418.400000
4280 12307 4281 1 109.50000 418.400000
363 12308 1544 1 109.50000 418.400000
363 12308 4282 1 109.50000 418.400000
363 12308 4283 1 109.50000 418.400000
1544 12308 4282 1 109.50000 418.400000
1544 12308 4283 1 109.50000 418.400000
4282 12308 4283 1 109.50000 418.400000
3396 12309 4284 1 109.50000 418.400000
3396 12309 4286 1 109.50000 418.400000
3396 12309 10038 1 109.50000 418.400000
4284 12309 4286 1 109.50000 418.400000
4284 12309 10038 1 109.50000 418.400000
4286 12309 10038 1 109.50000 418.400000
4272 12310 4287 1 109.50000 418.400000
4272 12310 4288 1 109.50000 418.400000
4272 12310 4289 1 109.50000 418.400000
4287 12310 4288 1 109.50000 418.400000
4287 12310 4289 1 109.50000 418.400000
4288 12310 4289 1 109.50000 418.400000
4290 12311 4291 1 109.50000 418.400000
4290 12311 4292 1 109.50000 418.400000
4290 12311 4293 1 109.50000 418.400000
4291 12311 4292 1 109.50000 418.400000
4291 12311 4293 1 109.50000 418.400000
4292 12311 4293 1 109.50000 418.400000
658 12312 660 1 109.50000 418.400000
658 12312 4294 1 109.50000 418.400000
658 12312 4296 1 109.50000 418.400000
660 12312 4294 1 109.50000 418.400000
660 12312 4296 1 109.50000 418.400000
4294 12312 4296 1 109.50000 418.400000
3164 12313 4299 1 109.50000 418.400000
3164 12313 4300 1 109.50000 418.400000
3164 12313 4301 1 109.50000 418.400000
4299 12313 4300 1 109.50000 418.400000
4299 12313 4301 1 109.50000 418.400000
4300 12313 4301 1 109.50000 418.400000
559 12314 4302 1 109.50000 418.400000
559 12314 4304 1 109.50000 418.400000
559 12314 4560 1 109.50000 418.400000
4302 12314 4304 1 109.50000 418.400000
4302 12314 4560 1 109.50000 418.400000
4304 12314 4560 1 109.50000 418.400000
4305 12315 4306 1 109.50000 418.400000
4305 12315 4307 1 109.50000 418.400000
4305 12315 4308 1 109.50000 418.400000
4306 12315 4307 1 109.50000 418.400000
4306 12315 4308 1 109.50000 418.400000
4307 12315 4308 1 109.50000 418.400000
2836 12316 4309 1 109.50000 418.400000
2836 12316 4310 1 109.50000 418.400000
2836 12316 4311 1 109.50000 418.400000
4309 12316 4310 1 109.50000 418.400000
4309 12316 4311 1 109.50000 418.400000
4310 12316 4311 1 109.50000 418.400000
17 12317 4137 1 109.50000 418.400000
17 12317 4312 1 109.50000 418.400000
17 12317 4313 1 109.50000 418.400000
4137 12317 4312 1 109.50000 418.400000
4137 12317 4313 1 109.50000 418.400000
4312 12317 4313 1 109.50000 418.400000
740 12318 4314 1 109.50000 418.400000
740 12318 4315 1 109.50000 418.400000
740 12318 4316 1 109.50000 418.400000
4314 12318 4315 1 109.50000 418.400000
4314 12318 4316 1 109.50000 418.400000
4315 12318 4316 1 109.50000 418.400000
4317 12319 4318 1 109.50000 418.400000
4317 12319 4319 1 109.50000 418.400000
4317 12319 7759 1 109.50000 418.400000
4318 12319 4319 1 109.50000 418.400000
4318 12319 7759 1 109.50000 418.400000
4319 12319 7759 1 109.50000 418.400000
4321 12320 4322 1 109.50000 418.400000
4321 12320 4323 1 109.50000 418.400000
4321 12320 4324 1 109.50000 418.400000
4322 12320 4323 1 109.50000 418.400000
4322 12320 4324 1 109.50000 418.400000
4323 12320 4324 1 109.50000 418.400000
4327 12321 4328 1 109.50000 418.400000
4327 12321 4329 1 109.50000 418.400000
4327 12321 4330 1 109.50000 418.400000
4328 12321 4329 1 109.50000 418.400000
4328 12321 4330 1 109.50000 418.400000
4329 12321 4330 1 109.50000 418.400000
4331 12322 4332 1 109.50000 418.400000
4331 12322 4333 1 109.50000 418.400000
4331 12322 4334 1 109.50000 418.400000
4332 12322 4333 1 109.50000 418.400000
4332 12322 4334 1 109.50000 418.400000
4333 12322 4334 1 109.50000 418.400000
3556 12323 4335 1 109.50000 418.400000
3556 12323 4336 1 109.50000 418.400000
3556 12323 4337 1 109.50000 418.400000
4335 12323 4336 1 109.50000 418.400000
4335 12323 4337 1 109.50000 418.400000
4336 12323 4337 1 109.50000 418.400000
4341 12324 4342 1 109.50000 418.400000
4341 12324 4343 1 109.50000 418.400000
4341 12324 4344 1 109.50000 418.400000
4342 12324 4343 1 109.50000 418.400000
4342 12324 4344 1 109.50000 418.400000
4343 12324 4344 1 109.50000 418.400000
4345 12325 4346 1 109.50000 418.400000
4345 12325 4347 1 109.50000 418.400000
4345 12325 4348 1 109.50000 418.400000
4346 12325 4347 1 109.50000 418.400000
4346 12325 4348 1 109.50000 418.400000
4347 12325 4348 1 109.50000 418.400000
4349 12326 4350 1 109.50000 418.400000
4349 12326 4351 1 109.50000 418.400000
4349 12326 4352 1 109.50000 418.400000
4350 12326 4351 1 109.50000 418.400000
4350 12326 4352 1 109.50000 418.400000
4351 12326 4352 1 109.50000 418.400000
4353 12327 4354 1 109.50000 418.400000
4353 12327 4355 1 109.50000 418.400000
4353 12327 4356 1 109.50000 418.400000
4354 12327 4355 1 109.50000 418.400000
4354 12327 4356 1 109.50000 418.400000
4355 12327 4356 1 109.50000 418.400000
4357 12328 4358 1 109.50000 418.400000
4357 12328 4359 1 109.50000 418.400000
4357 12328 4360 1 109.50000 418.400000
4358 12328 4359 1 109.50000 418.400000
4358 12328 4360 1 109.50000 418.400000
4359 12328 4360 1 109.50000 418.400000
4361 12329 4362 1 109.50000 418.400000
4361 12329 4363 1 109.50000 418.400000
4361 12329 4364 1 109.50000 418.400000
4362 12329 4363 1 109.50000 418.400000
4362 12329 4364 1 109.50000 418.400000
4363 12329 4364 1 109.50000 418.400000
4365 12330 4366 1 109.50000 418.400000
4365 12330 4367 1 109.50000 418.400000
4365 12330 4368 1 109.50000 418.400000
4366 12330 4367 1 109.50000 418.400000
4366 12330 4368 1 109.50000 418.400000
4367 12330 4368 1 109.50000 418.400000
757 12331 4369 1 109.50000 418.400000
757 12331 4370 1 109.50000 418.400000
757 12331 4371 1 109.50000 418.400000
4369 12331 4370 1 109.50000 418.400000
4369 12331 4371 1 109.50000 418.400000
4370 12331 4371 1 109.50000 418.400000
114 12332 4143 1 109.50000 418.400000
114 12332 4372 1 109.50000 418.400000
114 12332 4373 1 109.50000 418.400000
4143 12332 4372 1 109.50000 418.400000
4143 12332 4373 1 109.50000 418.400000
4372 12332 4373 1 109.50000 418.400000
3088 12333 3574 1 109.50000 418.400000
3088 12333 4375 1 109.50000 418.400000
3088 12333 4376 1 109.50000 418.400000
3574 12333 4375 1 109.50000 418.400000
3574 12333 4376 1 109.50000 418.400000
4375 12333 4376 1 109.50000 418.400000
675 12334 4377 1 109.50000 418.400000
675 12334 4378 1 109.50000 418.400000
675 12334 4379 1 109.50000 418.400000
4377 12334 4378 1 109.50000 418.400000
4377 12334 4379 1 109.50000 418.400000
4378 12334 4379 1 109.50000 418.400000
999 12335 3664 1 109.50000 418.400000
999 12335 4380 1 109.50000 418.400000
999 12335 4381 1 109.50000 418.400000
3664 12335 4380 1 109.50000 418.400000
3664 12335 4381 1 109.50000 418.400000
4380 12335 4381 1 109.50000 418.400000
4089 12336 4382 1 109.50000 418.400000
4089 12336 4383 1 109.50000 418.400000
4089 12336 4384 1 109.50000 418.400000
4382 12336 4383 1 109.50000 418.400000
4382 12336 4384 1 109.50000 418.400000
4383 12336 4384 1 109.50000 418.400000
4385 12337 4386 1 109.50000 418.400000
4385 12337 4387 1 109.50000 418.400000
4385 12337 4388 1 109.50000 418.400000
4386 12337 4387 1 109.50000 418.400000
4386 12337 4388 1 109.50000 418.400000
4387 12337 4388 1 109.50000 418.400000
664 12338 2529 1 109.50000 418.400000
664 12338 4389 1 109.50000 418.400000
664 12338 4390 1 109.50000 418.400000
2529 12338 4389 1 109.50000 418.400000
2529 12338 4390 1 109.50000 418.400000
4389 12338 4390 1 109.50000 418.400000
1338 12339 4391 1 109.50000 418.400000
1338 12339 4393 1 109.50000 418.400000
1338 12339 9172 1 109.50000 418.400000
4391 12339 4393 1 109.50000 418.400000
4391 12339 9172 1 109.50000 418.400000
4393 12339 9172 1 109.50000 418.400000
4394 12340 4395 1 109.50000 418.400000
4394 12340 4396 1 109.50000 418.400000
4394 12340 4397 1 109.50000 418.400000
4395 12340 4396 1 109.50000 418.400000
4395 12340 4397 1 109.50000 418.400000
4396 12340 4397 1 109.50000 418.400000
2778 12341 4401 1 109.50000 418.400000
2778 12341 4402 1 109.50000 418.400000
2778 12341 4403 1 109.50000 418.400000
4401 12341 4402 1 109.50000 418.400000
4401 12341 4403 1 109.50000 418.400000
4402 12341 4403 1 109.50000 418.400000
4245 12342 4404 1 109.50000 418.400000
4245 12342 4405 1 109.50000 418.400000
4245 12342 4406 1 109.50000 418.400000
4404 12342 4405 1 109.50000 418.400000
4404 12342 4406 1 109.50000 418.400000
4405 12342 4406 1 109.50000 418.400000
571 12343 4407 1 109.50000 418.400000
571 12343 4408 1 109.50000 418.400000
571 12343 4409 1 109.50000 418.400000
4407 12343 4408 1 109.50000 418.400000
4407 12343 4409 1 109.50000 418.400000
4408 12343 4409 1 109.50000 418.400000
1203 12344 4410 1 109.50000 418.400000
1203 12344 4411 1 109.50000 418.400000
1203 12344 4412 1 109.50000 418.400000
4410 12344 4411 1 109.50000 418.400000
4410 12344 4412 1 109.50000 418.400000
4411 12344 4412 1 109.50000 418.400000
4413 12345 4414 1 109.50000 418.400000
4413 12345 4415 1 109.50000 418.400000
4413 12345 4416 1 109.50000 418.400000
4414 12345 4415 1 109.50000 418.400000
4414 12345 4416 1 109.50000 418.400000
4415 12345 4416 1 109.50000 418.400000
3407 12346 3408 1 109.50000 418.400000
3407 12346 4417 1 109.50000 418.400000
3407 12346 4418 1 109.50000 418.400000
3408 12346 4417 1 109.50000 418.400000
3408 12346 4418 1 109.50000 418.400000
4417 12346 4418 1 109.50000 418.400000
3798 12347 4420 1 109.50000 418.400000
3798 12347 4421 1 109.50000 418.400000
3798 12347 4422 1 109.50000 418.400000
4420 12347 4421 1 109.50000 418.400000
4420 12347 4422 1 109.50000 418.400000
4421 12347 4422 1 109.50000 418.400000
2375 12348 4309 1 109.50000 418.400000
2375 12348 4423 1 109.50000 418.400000
2375 12348 4424 1 109.50000 418.400000
4309 12348 4423 1 109.50000 418.400000
4309 12348 4424 1 109.50000 418.400000
4423 12348 4424 1 109.50000 418.400000
1861 12349 4425 1 109.50000 418.400000
1861 12349 4426 1 109.50000 418.400000
1861 12349 4427 1 109.50000 418.400000
4425 12349 4426 1 109.50000 418.400000
4425 12349 4427 1 109.50000 418.400000
4426 12349 4427 1 109.50000 418.400000
4428 12350 4429 1 109.50000 418.400000
4428 12350 4430 1 109.50000 418.400000
4428 12350 4431 1 109.50000 418.400000
4429 12350 4430 1 109.50000 418.400000
4429 12350 4431 1 109.50000 418.400000
4430 12350 4431 1 109.50000 418.400000
4436 12351 4437 1 109.50000 418.400000
4436 12351 4438 1 109.50000 418.400000
4436 12351 4439 1 109.50000 418.400000
4437 12351 4438 1 109.50000 418.400000
4437 12351 4439 1 109.50000 418.400000
4438 12351 4439 1 109.50000 418.400000
1833 12352 3721 1 109.50000 418.400000
1833 12352 4440 1 109.50000 418.400000
1833 12352 4441 1 109.50000 418.400000
3721 12352 4440 1 109.50000 418.400000
3721 12352 4441 1 109.50000 418.400000
4440 12352 4441 1 109.50000 418.400000
4442 12353 4443 1 109.50000 418.400000
4442 12353 4444 1 109.50000 418.400000
4442 12353 4445 1 109.50000 418.400000
4443 12353 4444 1 109.50000 418.400000
4443 12353 4445 1 109.50000 418.400000
4444 12353 4445 1 109.50000 418.400000
4446 12354 4447 1 109.50000 418.400000
4446 12354 4448 1 109.50000 418.400000
4446 12354 4449 1 109.50000 418.400000
4447 12354 4448 1 109.50000 418.400000
4447 12354 4449 1 109.50000 418.400000
4448 12354 4449 1 109.50000 418.400000
2184 12355 4450 1 109.50000 418.400000
2184 12355 4451 1 109.50000 418.400000
2184 12355 4452 1 109.50000 418.400000
4450 12355 4451 1 109.50000 418.400000
4450 12355 4452 1 109.50000 418.400000
4451 12355 4452 1 109.50000 418.400000
2483 12356 4453 1 109.50000 418.400000
2483 12356 4454 1 109.50000 418.400000
2483 12356 4455 1 109.50000 418.400000
4453 12356 4454 1 109.50000 418.400000
4453 12356 4455 1 109.50000 418.400000
4454 12356 4455 1 109.50000 418.400000
1015 12357 4456 1 109.50000 418.400000
1015 12357 4457 1 109.50000 418.400000
1015 12357 4458 1 109.50000 418.400000
4456 12357 4457 1 109.50000 418.400000
4456 12357 4458 1 109.50000 418.400000
4457 12357 4458 1 109.50000 418.400000
1055 12358 4285 1 109.50000 418.400000
1055 12358 4459 1 109.50000 418.400000
1055 12358 4460 1 109.50000 418.400000
4285 12358 4459 1 109.50000 418.400000
4285 12358 4460 1 109.50000 418.400000
4459 12358 4460 1 109.50000 418.400000
2487 12359 4461 1 109.50000 418.400000
2487 12359 4462 1 109.50000 418.400000
2487 12359 4463 1 109.50000 418.400000
4461 12359 4462 1 109.50000 418.400000
4461 12359 4463 1 109.50000 418.400000
4462 12359 4463 1 109.50000 418.400000
3350 12360 4464 1 109.50000 418.400000
3350 12360 4465 1 109.50000 418.400000
3350 12360 10518 1 109.50000 418.400000
4464 12360 4465 1 109.50000 418.400000
4464 12360 10518 1 109.50000 418.400000
4465 12360 10518 1 109.50000 418.400000
3271 12361 4466 1 109.50000 418.400000
3271 12361 4467 1 109.50000 418.400000
3271 12361 4468 1 109.50000 418.400000
4466 12361 4467 1 109.50000 418.400000
4466 12361 4468 1 109.50000 418.400000
4467 12361 4468 1 109.50000 418.400000
4469 12362 4470 1 109.50000 418.400000
4469 12362 4471 1 109.50000 418.400000
4469 12362 4472 1 109.50000 418.400000
4470 12362 4471 1 109.50000 418.400000
4470 12362 4472 1 109.50000 418.400000
4471 12362 4472 1 109.50000 418.400000
310 12363 4473 1 109.50000 418.400000
310 12363 4474 1 109.50000 418.400000
310 12363 4475 1 109.50000 418.400000
4473 12363 4474 1 109.50000 418.400000
4473 12363 4475 1 109.50000 418.400000
4474 12363 4475 1 109.50000 418.400000
4482 12364 4483 1 109.50000 418.400000
4482 12364 4484 1 109.50000 418.400000
4482 12364 4485 1 109.50000 418.400000
4483 12364 4484 1 109.50000 418.400000
4483 12364 4485 1 109.50000 418.400000
4484 12364 4485 1 109.50000 418.400000
4486 12365 4487 1 109.50000 418.400000
4486 12365 4488 1 109.50000 418.400000
4486 12365 4489 1 109.50000 418.400000
4487 12365 4488 1 109.50000 418.400000
4487 12365 4489 1 109.50000 418.400000
4488 12365 4489 1 109.50000 418.400000
4490 12366 4491 1 109.50000 418.400000
4490 12366 4492 1 109.50000 418.400000
4490 12366 4493 1 109.50000 418.400000
4491 12366 4492 1 109.50000 418.400000
4491 12366 4493 1 109.50000 418.400000
4492 12366 4493 1 109.50000 418.400000
4494 12367 4496 1 109.50000 418.400000
4494 12367 4497 1 109.50000 418.400000
4494 12367 9510 1 109.50000 418.400000
4496 12367 4497 1 109.50000 418.400000
4496 12367 9510 1 109.50000 418.400000
4497 12367 9510 1 109.50000 418.400000
893 12368 4498 1 109.50000 418.400000
893 12368 4499 1 109.50000 418.400000
893 12368 4500 1 109.50000 418.400000
4498 12368 4499 1 109.50000 418.400000
4498 12368 4500 1 109.50000 418.400000
4499 12368 4500 1 109.50000 418.400000
2160 12369 4501 1 109.50000 418.400000
2160 12369 4502 1 109.50000 418.400000
2160 12369 4503 1 109.50000 418.400000
4501 12369 4502 1 109.50000 418.400000
4501 12369 4503 1 109.50000 418.400000
4502 12369 4503 1 109.50000 418.400000
3266 12370 4504 1 109.50000 418.400000
3266 12370 4505 1 109.50000 418.400000
3266 12370 4506 1 109.50000 418.400000
4504 12370 4505 1 109.50000 418.400000
4504 12370 4506 1 109.50000 418.400000
4505 12370 4506 1 109.50000 418.400000
2879 12371 3961 1 109.50000 418.400000
2879 12371 4507 1 109.50000 418.400000
2879 12371 4508 1 109.50000 418.400000
3961 12371 4507 1 109.50000 418.400000
3961 12371 4508 1 109.50000 418.400000
4507 12371 4508 1 109.50000 418.400000
4518 12372 4519 1 109.50000 418.400000
4518 12372 4520 1 109.50000 418.400000
4518 12372 4521 1 109.50000 418.400000
4519 12372 4520 1 109.50000 418.400000
4519 12372 4521 1 109.50000 418.400000
4520 12372 4521 1 109.50000 418.400000
529 12373 2344 1 109.50000 418.400000
529 12373 4522 1 109.50000 418.400000
529 12373 4523 1 109.50000 418.400000
2344 12373 4522 1 109.50000 418.400000
2344 12373 4523 1 109.50000 418.400000
4522 12373 4523 1 109.50000 418.400000
2214 12374 3701 1 109.50000 418.400000
2214 12374 4524 1 109.50000 418.400000
2214 12374 4525 1 109.50000 418.400000
3701 12374 4524 1 109.50000 418.400000
3701 12374 4525 1 109.50000 418.400000
4524 12374 4525 1 109.50000 418.400000
4526 12375 4527 1 109.50000 418.400000
4526 12375 4528 1 109.50000 418.400000
4526 12375 4529 1 109.50000 418.400000
4527 12375 4528 1 109.50000 418.400000
4527 12375 4529 1 109.50000 418.400000
4528 12375 4529 1 109.50000 418.400000
4371 12376 4531 1 109.50000 418.400000
4371 12376 4532 1 109.50000 418.400000
4371 12376 4533 1 109.50000 418.400000
4531 12376 4532 1 109.50000 418.400000
4531 12376 4533 1 109.50000 418.400000
4532 12376 4533 1 109.50000 418.400000
12 12377 4536 1 109.50000 418.400000
12 12377 4537 1 109.50000 418.400000
12 12377 4538 1 109.50000 418.400000
4536 12377 4537 1 109.50000 418.400000
4536 12377 4538 1 109.50000 418.400000
4537 12377 4538 1 109.50000 418.400000
147 12378 4539 1 109.50000 418.400000
147 12378 11199 1 109.50000 418.400000
147 12378 11204 1 109.50000 418.400000
4539 12378 11199 1 109.50000 418.400000
4539 12378 11204 1 109.50000 418.400000
11199 12378 11204 1 109.50000 418.400000
3231 12379 4540 1 109.50000 418.400000
3231 12379 4541 1 109.50000 418.400000
3231 12379 4542 1 109.50000 418.400000
4540 12379 4541 1 109.50000 418.400000
4540 12379 4542 1 109.50000 418.400000
4541 12379 4542 1 109.50000 418.400000
3759 12380 4543 1 109.50000 418.400000
3759 12380 4544 1 109.50000 418.400000
3759 12380 4545 1 109.50000 418.400000
4543 12380 4544 1 109.50000 418.400000
4543 12380 4545 1 109.50000 418.400000
4544 12380 4545 1 109.50000 418.400000
4546 12381 4547 1 109.50000 418.400000
4546 12381 4548 1 109.50000 418.400000
4546 12381 4549 1 109.50000 418.400000
4547 12381 4548 1 109.50000 418.400000
4547 12381 4549 1 109.50000 418.400000
4548 12381 4549 1 109.50000 418.400000
2289 12382 4550 1 109.50000 418.400000
2289 12382 4551 1 109.50000 418.400000
2289 12382 4552 1 109.50000 418.400000
4550 12382 4551 1 109.50000 418.400000
4550 12382 4552 1 109.50000 418.400000
4551 12382 4552 1 109.50000 418.400000
4554 12383 4555 1 109.50000 418.400000
4554 12383 4556 1 109.50000 418.400000
4554 12383 9056 1 109.50000 418.400000
4555 12383 4556 1 109.50000 418.400000
4555 12383 9056 1 109.50000 418.400000
4556 12383 9056 1 109.50000 418.400000
2614 12384 4557 1 109.50000 418.400000
2614 12384 4558 1 109.50000 418.400000
2614 12384 4559 1 109.50000 418.400000
4557 12384 4558 1 109.50000 418.400000
4557 12384 4559 1 109.50000 418.400000
4558 12384 4559 1 109.50000 418.400000
4302 12385 4303 1 109.50000 418.400000
4302 12385 4561 1 109.50000 418.400000
4302 12385 4562 1 109.50000 418.400000
4303 12385 4561 1 109.50000 418.400000
4303 12385 4562 1 109.50000 418.400000
4561 12385 4562 1 109.50000 418.400000
394 12386 4462 1 109.50000 418.400000
394 12386 4563 1 109.50000 418.400000
394 12386 4564 1 109.50000 418.400000
4462 12386 4563 1 109.50000 418.400000
4462 12386 4564 1 109.50000 418.400000
4563 12386 4564 1 109.50000 418.400000
415 12387 3031 1 109.50000 418.400000
415 12387 4565 1 109.50000 418.400000
415 12387 4566 1 109.50000 418.400000
3031 12387 4565 1 109.50000 418.400000
3031 12387 4566 1 109.50000 418.400000
4565 12387 4566 1 109.50000 418.400000
754 12388 2128 1 109.50000 418.400000
754 12388 2917 1 109.50000 418.400000
754 12388 4567 1 109.50000 418.400000
2128 12388 2917 1 109.50000 418.400000
2128 12388 4567 1 109.50000 418.400000
2917 12388 4567 1 109.50000 418.400000
4568 12389 4569 1 109.50000 418.400000
4568 12389 4570 1 109.50000 418.400000
4568 12389 4571 1 109.50000 418.400000
4569 12389 4570 1 109.50000 418.400000
4569 12389 4571 1 109.50000 418.400000
4570 12389 4571 1 109.50000 418.400000
3517 12390 4572 1 109.50000 418.400000
3517 12390 4573 1 109.50000 418.400000
3517 12390 4574 1 109.50000 418.400000
4572 12390 4573 1 109.50000 418.400000
4572 12390 4574 1 109.50000 418.400000
4573 12390 4574 1 109.50000 418.400000
4575 12391 4576 1 109.50000 418.400000
4575 12391 4577 1 109.50000 418.400000
4575 12391 4578 1 109.50000 418.400000
4576 12391 4577 1 109.50000 418.400000
4576 12391 4578 1 109.50000 418.400000
4577 12391 4578 1 109.50000 418.400000
4579 12392 4580 1 109.50000 418.400000
4579 12392 4581 1 109.50000 418.400000
4579 12392 4582 1 109.50000 418.400000
4580 12392 4581 1 109.50000 418.400000
4580 12392 4582 1 109.50000 418.400000
4581 12392 4582 1 109.50000 418.400000
2219 12393 3346 1 109.50000 418.400000
2219 12393 4583 1 109.50000 418.400000
2219 12393 8090 1 109.50000 418.400000
3346 12393 4583 1 109.50000 418.400000
3346 12393 8090 1 109.50000 418.400000
4583 12393 8090 1 109.50000 418.400000
2454 12394 2843 1 109.50000 418.400000
2454 12394 4364 1 109.50000 418.400000
2454 12394 4585 1 109.50000 418.400000
2843 12394 4364 1 109.50000 418.400000
2843 12394 4585 1 109.50000 418.400000
4364 12394 4585 1 109.50000 418.400000
4591 12395 9469 1 109.50000 418.400000
4591 12395 10531 1 109.50000 418.400000
4591 12395 10532 1 109.50000 418.400000
9469 12395 10531 1 109.50000 418.400000
9469 12395 10532 1 109.50000 418.400000
10531 12395 10532 1 109.50000 418.400000
2864 12396 4594 1 109.50000 418.400000
2864 12396 4595 1 109.50000 418.400000
2864 12396 10285 1 109.50000 418.400000
4594 12396 4595 1 109.50000 418.400000
4594 12396 10285 1 109.50000 418.400000
4595 12396 10285 1 109.50000 418.400000
120 12397 4596 1 109.50000 418.400000
120 12397 4597 1 109.50000 418.400000
120 12397 4598 1 109.50000 418.400000
4596 12397 4597 1 109.50000 418.400000
4596 12397 4598 1 109.50000 418.400000
4597 12397 4598 1 109.50000 418.400000
4599 12398 4600 1 109.50000 418.400000
4599 12398 4601 1 109.50000 418.400000
4599 12398 4602 1 109.50000 418.400000
4600 12398 4601 1 109.50000 418.400000
4600 12398 4602 1 109.50000 418.400000
4601 12398 4602 1 109.50000 418.400000
399 12399 1946 1 109.50000 418.400000
399 12399 4605 1 109.50000 418.400000
399 12399 4606 1 109.50000 418.400000
1946 12399 4605 1 109.50000 418.400000
1946 12399 4606 1 109.50000 418.400000
4605 12399 4606 1 109.50000 418.400000
4609 12400 4610 1 109.50000 418.400000
4609 12400 4611 1 109.50000 418.400000
4609 12400 4612 1 109.50000 418.400000
4610 12400 4611 1 109.50000 418.400000
4610 12400 4612 1 109.50000 418.400000
4611 12400 4612 1 109.50000 418.400000
4613 12401 4614 1 109.50000 418.400000
4613 12401 4615 1 109.50000 418.400000
4613 12401 4616 1 109.50000 418.400000
4614 12401 4615 1 109.50000 418.400000
4614 12401 4616 1 109.50000 418.400000
4615 12401 4616 1 109.50000 418.400000
140 12402 4617 1 109.50000 418.400000
140 12402 4618 1 109.50000 418.400000
140 12402 4619 1 109.50000 418.400000
4617 12402 4618 1 109.50000 418.400000
4617 12402 4619 1 109.50000 418.400000
4618 12402 4619 1 109.50000 418.400000
2542 12403 4620 1 109.50000 418.400000
2542 12403 4621 1 109.50000 418.400000
2542 12403 4622 1 109.50000 418.400000
4620 12403 4621 1 109.50000 418.400000
4620 12403 4622 1 109.50000 418.400000
4621 12403 4622 1 109.50000 418.400000
753 12404 4179 1 109.50000 418.400000
753 12404 4626 1 109.50000 418.400000
753 12404 4627 1 109.50000 418.400000
4179 12404 4626 1 109.50000 418.400000
4179 12404 4627 1 109.50000 418.400000
4626 12404 4627 1 109.50000 418.400000
1393 12405 4420 1 109.50000 418.400000
1393 12405 4628 1 109.50000 418.400000
1393 12405 4629 1 109.50000 418.400000
4420 12405 4628 1 109.50000 418.400000
4420 12405 4629 1 109.50000 418.400000
4628 12405 4629 1 109.50000 418.400000
4630 12406 4631 1 109.50000 418.400000
4630 12406 4632 1 109.50000 418.400000
4630 12406 4633 1 109.50000 418.400000
4631 12406 4632 1 109.50000 418.400000
4631 12406 4633 1 109.50000 418.400000
4632 12406 4633 1 109.50000 418.400000
1847 12407 3783 1 109.50000 418.400000
1847 12407 4634 1 109.50000 418.400000
1847 12407 4635 1 109.50000 418.400000
3783 12407 4634 1 109.50000 418.400000
3783 12407 4635 1 109.50000 418.400000
4634 12407 4635 1 109.50000 418.400000
186 12408 543 1 109.50000 418.400000
186 12408 544 1 109.50000 418.400000
186 12408 545 1 109.50000 418.400000
543 12408 544 1 109.50000 418.400000
543 12408 545 1 109.50000 418.400000
544 12408 545 1 109.50000 418.400000
4641 12409 4642 1 109.50000 418.400000
4641 12409 4643 1 109.50000 418.400000
4641 12409 4644 1 109.50000 418.400000
4642 12409 4643 1 109.50000 418.400000
4642 12409 4644 1 109.50000 418.400000
4643 12409 4644 1 109.50000 418.400000
1801 12410 4645 1 109.50000 418.400000
1801 12410 4646 1 109.50000 418.400000
1801 12410 4647 1 109.50000 418.400000
4645 12410 4646 1 109.50000 418.400000
4645 12410 4647 1 109.50000 418.400000
4646 12410 4647 1 109.50000 418.400000
3623 12411 4648 1 109.50000 418.400000
3623 12411 4649 1 109.50000 418.400000
3623 12411 4650 1 109.50000 418.400000
4648 12411 4649 1 109.50000 418.400000
4648 12411 4650 1 109.50000 418.400000
4649 12411 4650 1 109.50000 418.400000
4046 12412 4651 1 109.50000 418.400000
4046 12412 4652 1 109.50000 418.400000
4046 12412 4653 1 109.50000 418.400000
4651 12412 4652 1 109.50000 418.400000
4651 12412 4653 1 109.50000 418.400000
4652 12412 4653 1 109.50000 418.400000
4654 12413 4655 1 109.50000 418.400000
4654 12413 4656 1 109.50000 418.400000
4654 12413 4657 1 109.50000 418.400000
4655 12413 4656 1 109.50000 418.400000
4655 12413 4657 1 109.50000 418.400000
4656 12413 4657 1 109.50000 418.400000
2561 12414 2745 1 109.50000 418.400000
2561 12414 4658 1 109.50000 418.400000
2561 12414 4659 1 109.50000 418.400000
2745 12414 4658 1 109.50000 418.400000
2745 12414 4659 1 109.50000 418.400000
4658 12414 4659 1 109.50000 418.400000
4660 12415 4661 1 109.50000 418.400000
4660 12415 4662 1 109.50000 418.400000
4660 12415 4663 1 109.50000 418.400000
4661 12415 4662 1 109.50000 418.400000
4661 12415 4663 1 109.50000 418.400000
4662 12415 4663 1 109.50000 418.400000
3758 12416 4664 1 109.50000 418.400000
3758 12416 4665 1 109.50000 418.400000
3758 12416 4666 1 109.50000 418.400000
4664 12416 4665 1 109.50000 418.400000
4664 12416 4666 1 109.50000 418.400000
4665 12416 4666 1 109.50000 418.400000
4667 12417 4668 1 109.50000 418.400000
4667 12417 4669 1 109.50000 418.400000
4667 12417 4670 1 109.50000 418.400000
4668 12417 4669 1 109.50000 418.400000
4668 12417 4670 1 109.50000 418.400000
4669 12417 4670 1 109.50000 418.400000
4422 12418 4671 1 109.50000 418.400000
4422 12418 4672 1 109.50000 418.400000
4422 12418 4673 1 109.50000 418.400000
4671 12418 4672 1 109.50000 418.400000
4671 12418 4673 1 109.50000 418.400000
4672 12418 4673 1 109.50000 418.400000
4674 12419 4675 1 109.50000 418.400000
4674 12419 4677 1 109.50000 418.400000
4674 12419 6369 1 109.50000 418.400000
4675 12419 4677 1 109.50000 418.400000
4675 12419 6369 1 109.50000 418.400000
4677 12419 6369 1 109.50000 418.400000
4678 12420 4679 1 109.50000 418.400000
4678 12420 4680 1 109.50000 418.400000
4678 12420 4681 1 109.50000 418.400000
4679 12420 4680 1 109.50000 418.400000
4679 12420 4681 1 109.50000 418.400000
4680 12420 4681 1 109.50000 418.400000
96 12421 2613 1 109.50000 418.400000
96 12421 4682 1 109.50000 418.400000
96 12421 4683 1 109.50000 418.400000
2613 12421 4682 1 109.50000 418.400000
2613 12421 4683 1 109.50000 418.400000
4682 12421 4683 1 109.50000 418.400000
4684 12422 4685 1 109.50000 418.400000
4684 12422 4686 1 109.50000 418.400000
4684 12422 4687 1 109.50000 418.400000
4685 12422 4686 1 109.50000 418.400000
4685 12422 4687 1 109.50000 418.400000
4686 12422 4687 1 109.50000 418.400000
2685 12423 4688 1 109.50000 418.400000
2685 12423 4689 1 109.50000 418.400000
2685 12423 4690 1 109.50000 418.400000
4688 12423 4689 1 109.50000 418.400000
4688 12423 4690 1 109.50000 418.400000
4689 12423 4690 1 109.50000 418.400000
3592 12424 4649 1 109.50000 418.400000
3592 12424 4694 1 109.50000 418.400000
3592 12424 4695 1 109.50000 418.400000
4649 12424 4694 1 109.50000 418.400000
4649 12424 4695 1 109.50000 418.400000
4694 12424 4695 1 109.50000 418.400000
623 12425 2273 1 109.50000 418.400000
623 12425 4696 1 109.50000 418.400000
623 12425 4697 1 109.50000 418.400000
2273 12425 4696 1 109.50000 418.400000
2273 12425 4697 1 109.50000 418.400000
4696 12425 4697 1 109.50000 418.400000
1474 12426 2833 1 109.50000 418.400000
1474 12426 4698 1 109.50000 418.400000
1474 12426 4699 1 109.50000 418.400000
2833 12426 4698 1 109.50000 418.400000
2833 12426 4699 1 109.50000 418.400000
4698 12426 4699 1 109.50000 418.400000
4262 12427 4702 1 109.50000 418.400000
4262 12427 4703 1 109.50000 418.400000
4262 12427 4704 1 109.50000 418.400000
4702 12427 4703 1 109.50000 418.400000
4702 12427 4704 1 109.50000 418.400000
4703 12427 4704 1 109.50000 418.400000
1082 12428 4705 1 109.50000 418.400000
1082 12428 4706 1 109.50000 418.400000
1082 12428 4707 1 109.50000 418.400000
4705 12428 4706 1 109.50000 418.400000
4705 12428 4707 1 109.50000 418.400000
4706 12428 4707 1 109.50000 418.400000
2497 12429 4708 1 109.50000 418.400000
2497 12429 4709 1 109.50000 418.400000
2497 12429 4710 1 109.50000 418.400000
4708 12429 4709 1 109.50000 418.400000
4708 12429 4710 1 109.50000 418.400000
4709 12429 4710 1 109.50000 418.400000
4711 12430 4712 1 109.50000 418.400000
4711 12430 4713 1 109.50000 418.400000
4711 12430 4714 1 109.50000 418.400000
4712 12430 4713 1 109.50000 418.400000
4712 12430 4714 1 109.50000 418.400000
4713 12430 4714 1 109.50000 418.400000
2594 12431 4083 1 109.50000 418.400000
2594 12431 4715 1 109.50000 418.400000
2594 12431 4716 1 109.50000 418.400000
4083 12431 4715 1 109.50000 418.400000
4083 12431 4716 1 109.50000 418.400000
4715 12431 4716 1 109.50000 418.400000
4717 12432 4718 1 109.50000 418.400000
4717 12432 4719 1 109.50000 418.400000
4717 12432 4720 1 109.50000 418.400000
4718 12432 4719 1 109.50000 418.400000
4718 12432 4720 1 109.50000 418.400000
4719 12432 4720 1 109.50000 418.400000
4721 12433 4722 1 109.50000 418.400000
4721 12433 4723 1 109.50000 418.400000
4721 12433 4724 1 109.50000 418.400000
4722 12433 4723 1 109.50000 418.400000
4722 12433 4724 1 109.50000 418.400000
4723 12433 4724 1 109.50000 418.400000
4725 12434 4726 1 109.50000 418.400000
4725 12434 4727 1 109.50000 418.400000
4725 12434 4728 1 109.50000 418.400000
4726 12434 4727 1 109.50000 418.400000
4726 12434 4728 1 109.50000 418.400000
4727 12434 4728 1 109.50000 418.400000
4557 12435 4729 1 109.50000 418.400000
4557 12435 4730 1 109.50000 418.400000
4557 12435 4731 1 109.50000 418.400000
4729 12435 4730 1 109.50000 418.400000
4729 12435 4731 1 109.50000 418.400000
4730 12435 4731 1 109.50000 418.400000
4732 12436 4733 1 109.50000 418.400000
4732 12436 4734 1 109.50000 418.400000
4732 12436 4735 1 109.50000 418.400000
4733 12436 4734 1 109.50000 418.400000
4733 12436 4735 1 109.50000 418.400000
4734 12436 4735 1 109.50000 418.400000
4738 12437 4739 1 109.50000 418.400000
4738 12437 4740 1 109.50000 418.400000
4738 12437 4741 1 109.50000 418.400000
4739 12437 4740 1 109.50000 418.400000
4739 12437 4741 1 109.50000 418.400000
4740 12437 4741 1 109.50000 418.400000
3547 12438 4742 1 109.50000 418.400000
3547 12438 4743 1 109.50000 418.400000
3547 12438 4744 1 109.50000 418.400000
4742 12438 4743 1 109.50000 418.400000
4742 12438 4744 1 109.50000 418.400000
4743 12438 4744 1 109.50000 418.400000
2565 12439 4144 1 109.50000 418.400000
2565 12439 4745 1 109.50000 418.400000
2565 12439 4746 1 109.50000 418.400000
4144 12439 4745 1 109.50000 418.400000
4144 12439 4746 1 109.50000 418.400000
4745 12439 4746 1 109.50000 418.400000
4112 12440 4747 1 109.50000 418.400000
4112 12440 4748 1 109.50000 418.400000
4112 12440 4749 1 109.50000 418.400000
4747 12440 4748 1 109.50000 418.400000
4747 12440 4749 1 109.50000 418.400000
4748 12440 4749 1 109.50000 418.400000
1616 12441 1815 1 109.50000 418.400000
1616 12441 4750 1 109.50000 418.400000
1616 12441 4751 1 109.50000 418.400000
1815 12441 4750 1 109.50000 418.400000
1815 12441 4751 1 109.50000 418.400000
4750 12441 4751 1 109.50000 418.400000
4723 12442 4752 1 109.50000 418.400000
4723 12442 4753 1 109.50000 418.400000
4723 12442 4754 1 109.50000 418.400000
4752 12442 4753 1 109.50000 418.400000
4752 12442 4754 1 109.50000 418.400000
4753 12442 4754 1 109.50000 418.400000
54 12443 4756 1 109.50000 418.400000
54 12443 4757 1 109.50000 418.400000
54 12443 4758 1 109.50000 418.400000
4756 12443 4757 1 109.50000 418.400000
4756 12443 4758 1 109.50000 418.400000
4757 12443 4758 1 109.50000 418.400000
4288 12444 4759 1 109.50000 418.400000
4288 12444 4761 1 109.50000 418.400000
4288 12444 9073 1 109.50000 418.400000
4759 12444 4761 1 109.50000 418.400000
4759 12444 9073 1 109.50000 418.400000
4761 12444 9073 1 109.50000 418.400000
4713 12445 4762 1 109.50000 418.400000
4713 12445 4763 1 109.50000 418.400000
4713 12445 4764 1 109.50000 418.400000
4762 12445 4763 1 109.50000 418.400000
4762 12445 4764 1 109.50000 418.400000
4763 12445 4764 1 109.50000 418.400000
1679 12446 2482 1 109.50000 418.400000
1679 12446 4133 1 109.50000 418.400000
1679 12446 4765 1 109.50000 418.400000
2482 12446 4133 1 109.50000 418.400000
2482 12446 4765 1 109.50000 418.400000
4133 12446 4765 1 109.50000 418.400000
4606 12447 4766 1 109.50000 418.400000
4606 12447 4767 1 109.50000 418.400000
4606 12447 4768 1 109.50000 418.400000
4766 12447 4767 1 109.50000 418.400000
4766 12447 4768 1 109.50000 418.400000
4767 12447 4768 1 109.50000 418.400000
1665 12448 2646 1 109.50000 418.400000
1665 12448 4769 1 109.50000 418.400000
1665 12448 4770 1 109.50000 418.400000
2646 12448 4769 1 109.50000 418.400000
2646 12448 4770 1 109.50000 418.400000
4769 12448 4770 1 109.50000 418.400000
4773 12449 4774 1 109.50000 418.400000
4773 12449 4775 1 109.50000 418.400000
4773 12449 4776 1 109.50000 418.400000
4774 12449 4775 1 109.50000 418.400000
4774 12449 4776 1 109.50000 418.400000
4775 12449 4776 1 109.50000 418.400000
4777 12450 4778 1 109.50000 418.400000
4777 12450 4779 1 109.50000 418.400000
4777 12450 4780 1 109.50000 418.400000
4778 12450 4779 1 109.50000 418.400000
4778 12450 4780 1 109.50000 418.400000
4779 12450 4780 1 109.50000 418.400000
3001 12451 4072 1 109.50000 418.400000
3001 12451 4781 1 109.50000 418.400000
3001 12451 4782 1 109.50000 418.400000
4072 12451 4781 1 109.50000 418.400000
4072 12451 4782 1 109.50000 418.400000
4781 12451 4782 1 109.50000 418.400000
797 12452 4322 1 109.50000 418.400000
797 12452 4784 1 109.50000 418.400000
797 12452 4785 1 109.50000 418.400000
4322 12452 4784 1 109.50000 418.400000
4322 12452 4785 1 109.50000 418.400000
4784 12452 4785 1 109.50000 418.400000
379 12453 4786 1 109.50000 418.400000
379 12453 4787 1 109.50000 418.400000
379 12453 4788 1 109.50000 418.400000
4786 12453 4787 1 109.50000 418.400000
4786 12453 4788 1 109.50000 418.400000
4787 12453 4788 1 109.50000 418.400000
4790 12454 4791 1 109.50000 418.400000
4790 12454 4792 1 109.50000 418.400000
4790 12454 11179 1 109.50000 418.400000
4791 12454 4792 1 109.50000 418.400000
4791 12454 11179 1 109.50000 418.400000
4792 12454 11179 1 109.50000 418.400000
2971 12455 2972 1 109.50000 418.400000
2971 12455 4793 1 109.50000 418.400000
2971 12455 4794 1 109.50000 418.400000
2972 12455 4793 1 109.50000 418.400000
2972 12455 4794 1 109.50000 418.400000
4793 12455 4794 1 109.50000 418.400000
4796 12456 4797 1 109.50000 418.400000
4796 12456 4798 1 109.50000 418.400000
4796 12456 4799 1 109.50000 418.400000
4797 12456 4798 1 109.50000 418.400000
4797 12456 4799 1 109.50000 418.400000
4798 12456 4799 1 109.50000 418.400000
4801 12457 4803 1 109.50000 418.400000
4801 12457 6161 1 109.50000 418.400000
4801 12457 7451 1 109.50000 418.400000
4803 12457 6161 1 109.50000 418.400000
4803 12457 7451 1 109.50000 418.400000
6161 12457 7451 1 109.50000 418.400000
2791 12458 2793 1 109.50000 418.400000
2791 12458 4804 1 109.50000 418.400000
2791 12458 4805 1 109.50000 418.400000
2793 12458 4804 1 109.50000 418.400000
2793 12458 4805 1 109.50000 418.400000
4804 12458 4805 1 109.50000 418.400000
3725 12459 4818 1 109.50000 418.400000
3725 12459 4819 1 109.50000 418.400000
3725 12459 4820 1 109.50000 418.400000
4818 12459 4819 1 109.50000 418.400000
4818 12459 4820 1 109.50000 418.400000
4819 12459 4820 1 109.50000 418.400000
4821 12460 4822 1 109.50000 418.400000
4821 12460 4823 1 109.50000 418.400000
4821 12460 4824 1 109.50000 418.400000
4822 12460 4823 1 109.50000 418.400000
4822 12460 4824 1 109.50000 418.400000
4823 12460 4824 1 109.50000 418.400000
1424 12461 4828 1 109.50000 418.400000
1424 12461 4829 1 109.50000 418.400000
1424 12461 4830 1 109.50000 418.400000
4828 12461 4829 1 109.50000 418.400000
4828 12461 4830 1 109.50000 418.400000
4829 12461 4830 1 109.50000 418.400000
4831 12462 4832 1 109.50000 418.400000
4831 12462 4833 1 109.50000 418.400000
4831 12462 4834 1 109.50000 418.400000
4832 12462 4833 1 109.50000 418.400000
4832 12462 4834 1 109.50000 418.400000
4833 12462 4834 1 109.50000 418.400000
39 12463 4835 1 109.50000 418.400000
39 12463 4836 1 109.50000 418.400000
39 12463 4837 1 109.50000 418.400000
4835 12463 4836 1 109.50000 418.400000
4835 12463 4837 1 109.50000 418.400000
4836 12463 4837 1 109.50000 418.400000
955 12464 4838 1 109.50000 418.400000
955 12464 4839 1 109.50000 418.400000
955 12464 4840 1 109.50000 418.400000
4838 12464 4839 1 109.50000 418.400000
4838 12464 4840 1 109.50000 418.400000
4839 12464 4840 1 109.50000 418.400000
4841 12465 4842 1 109.50000 418.400000
4841 12465 4843 1 109.50000 418.400000
4841 12465 4844 1 109.50000 418.400000
4842 12465 4843 1 109.50000 418.400000
4842 12465 4844 1 109.50000 418.400000
4843 12465 4844 1 109.50000 418.400000
3912 12466 4845 1 109.50000 418.400000
3912 12466 4846 1 109.50000 418.400000
3912 12466 4847 1 109.50000 418.400000
4845 12466 4846 1 109.50000 418.400000
4845 12466 4847 1 109.50000 418.400000
4846 12466 4847 1 109.50000 418.400000
340 12467 4850 1 109.50000 418.400000
340 12467 4851 1 109.50000 418.400000
340 12467 4852 1 109.50000 418.400000
4850 12467 4851 1 109.50000 418.400000
4850 12467 4852 1 109.50000 418.400000
4851 12467 4852 1 109.50000 418.400000
4392 12468 4853 1 109.50000 418.400000
4392 12468 4854 1 109.50000 418.400000
4392 12468 4855 1 109.50000 418.400000
4853 12468 4854 1 109.50000 418.400000
4853 12468 4855 1 109.50000 418.400000
4854 12468 4855 1 109.50000 418.400000
2447 12469 3909 1 109.50000 418.400000
2447 12469 4856 1 109.50000 418.400000
2447 12469 4857 1 109.50000 418.400000
3909 12469 4856 1 109.50000 418.400000
3909 12469 4857 1 109.50000 418.400000
4856 12469 4857 1 109.50000 418.400000
2865 12470 2866 1 109.50000 418.400000
2865 12470 4858 1 109.50000 418.400000
2865 12470 4859 1 109.50000 418.400000
2866 12470 4858 1 109.50000 418.400000
2866 12470 4859 1 109.50000 418.400000
4858 12470 4859 1 109.50000 418.400000
4863 12471 4864 1 109.50000 418.400000
4863 12471 4865 1 109.50000 418.400000
4863 12471 4866 1 109.50000 418.400000
4864 12471 4865 1 109.50000 418.400000
4864 12471 4866 1 109.50000 418.400000
4865 12471 4866 1 109.50000 418.400000
2320 12472 4867 1 109.50000 418.400000
2320 12472 4868 1 109.50000 418.400000
2320 12472 4869 1 109.50000 418.400000
4867 12472 4868 1 109.50000 418.400000
4867 12472 4869 1 109.50000 418.400000
4868 12472 4869 1 109.50000 418.400000
841 12473 2752 1 109.50000 418.400000
841 12473 3015 1 109.50000 418.400000
841 12473 4872 1 109.50000 418.400000
2752 12473 3015 1 109.50000 418.400000
2752 12473 4872 1 109.50000 418.400000
3015 12473 4872 1 109.50000 418.400000
3810 12474 4873 1 109.50000 418.400000
3810 12474 4874 1 109.50000 418.400000
3810 12474 4875 1 109.50000 418.400000
4873 12474 4874 1 109.50000 418.400000
4873 12474 4875 1 109.50000 418.400000
4874 12474 4875 1 109.50000 418.400000
1451 12475 4876 1 109.50000 418.400000
1451 12475 4877 1 109.50000 418.400000
1451 12475 4878 1 109.50000 418.400000
4876 12475 4877 1 109.50000 418.400000
4876 12475 4878 1 109.50000 418.400000
4877 12475 4878 1 109.50000 418.400000
161 12476 4880 1 109.50000 418.400000
161 12476 4881 1 109.50000 418.400000
161 12476 4882 1 109.50000 418.400000
4880 12476 4881 1 109.50000 418.400000
4880 12476 4882 1 109.50000 418.400000
4881 12476 4882 1 109.50000 418.400000
4722 12477 4883 1 109.50000 418.400000
4722 12477 4884 1 109.50000 418.400000
4722 12477 4885 1 109.50000 418.400000
4883 12477 4884 1 109.50000 418.400000
4883 12477 4885 1 109.50000 418.400000
4884 12477 4885 1 109.50000 418.400000
4887 12478 4888 1 109.50000 418.400000
4887 12478 4889 1 109.50000 418.400000
4887 12478 4890 1 109.50000 418.400000
4888 12478 4889 1 109.50000 418.400000
4888 12478 4890 1 109.50000 418.400000
4889 12478 4890 1 109.50000 418.400000
2426 12479 4891 1 109.50000 418.400000
2426 12479 4892 1 109.50000 418.400000
2426 12479 4893 1 109.50000 418.400000
4891 12479 4892 1 109.50000 418.400000
4891 12479 4893 1 109.50000 418.400000
4892 12479 4893 1 109.50000 418.400000
732 12480 2676 1 109.50000 418.400000
732 12480 4897 1 109.50000 418.400000
732 12480 4898 1 109.50000 418.400000
2676 12480 4897 1 109.50000 418.400000
2676 12480 4898 1 109.50000 418.400000
4897 12480 4898 1 109.50000 418.400000
4902 12481 4903 1 109.50000 418.400000
4902 12481 4904 1 109.50000 418.400000
4902 12481 4905 1 109.50000 418.400000
4903 12481 4904 1 109.50000 418.400000
4903 12481 4905 1 109.50000 418.400000
4904 12481 4905 1 109.50000 418.400000
4906 12482 4907 1 109.50000 418.400000
4906 12482 4908 1 109.50000 418.400000
4906 12482 4909 1 109.50000 418.400000
4907 12482 4908 1 109.50000 418.400000
4907 12482 4909 1 109.50000 418.400000
4908 12482 4909 1 109.50000 418.400000
4910 12483 4911 1 109.50000 418.400000
4910 12483 4912 1 109.50000 418.400000
4910 12483 4913 1 109.50000 418.400000
4911 12483 4912 1 109.50000 418.400000
4911 12483 4913 1 109.50000 418.400000
4912 12483 4913 1 109.50000 418.400000
4914 12484 4915 1 109.50000 418.400000
4914 12484 4916 1 109.50000 418.400000
4914 12484 4917 1 109.50000 418.400000
4915 12484 4916 1 109.50000 418.400000
4915 12484 4917 1 109.50000 418.400000
4916 12484 4917 1 109.50000 418.400000
4918 12485 4919 1 109.50000 418.400000
4918 12485 4920 1 109.50000 418.400000
4918 12485 4921 1 109.50000 418.400000
4919 12485 4920 1 109.50000 418.400000
4919 12485 4921 1 109.50000 418.400000
4920 12485 4921 1 109.50000 418.400000
1302 12486 4923 1 109.50000 418.400000
1302 12486 4924 1 109.50000 418.400000
1302 12486 4925 1 109.50000 418.400000
4923 12486 4924 1 109.50000 418.400000
4923 12486 4925 1 109.50000 418.400000
4924 12486 4925 1 109.50000 418.400000
4458 12487 4926 1 109.50000 418.400000
4458 12487 4927 1 109.50000 418.400000
4458 12487 4928 1 109.50000 418.400000
4926 12487 4927 1 109.50000 418.400000
4926 12487 4928 1 109.50000 418.400000
4927 12487 4928 1 109.50000 418.400000
4617 12488 4929 1 109.50000 418.400000
4617 12488 4930 1 109.50000 418.400000
4617 12488 11182 1 109.50000 418.400000
4929 12488 4930 1 109.50000 418.400000
4929 12488 11182 1 109.50000 418.400000
4930 12488 11182 1 109.50000 418.400000
960 12489 2203 1 109.50000 418.400000
960 12489 4194 1 109.50000 418.400000
960 12489 4931 1 109.50000 418.400000
2203 12489 4194 1 109.50000 418.400000
2203 12489 4931 1 109.50000 418.400000
4194 12489 4931 1 109.50000 418.400000
4933 12490 4934 1 109.50000 418.400000
4933 12490 4935 1 109.50000 418.400000
4933 12490 4936 1 109.50000 418.400000
4934 12490 4935 1 109.50000 418.400000
4934 12490 4936 1 109.50000 418.400000
4935 12490 4936 1 109.50000 418.400000
4941 12491 4942 1 109.50000 418.400000
4941 12491 4943 1 109.50000 418.400000
4941 12491 6815 1 109.50000 418.400000
4942 12491 4943 1 109.50000 418.400000
4942 12491 6815 1 109.50000 418.400000
4943 12491 6815 1 109.50000 418.400000
3850 12492 4944 1 109.50000 418.400000
3850 12492 4945 1 109.50000 418.400000
3850 12492 4946 1 109.50000 418.400000
4944 12492 4945 1 109.50000 418.400000
4944 12492 4946 1 109.50000 418.400000
4945 12492 4946 1 109.50000 418.400000
4744 12493 4947 1 109.50000 418.400000
4744 12493 4948 1 109.50000 418.400000
4744 12493 4949 1 109.50000 418.400000
4947 12493 4948 1 109.50000 418.400000
4947 12493 4949 1 109.50000 418.400000
4948 12493 4949 1 109.50000 418.400000
4950 12494 4951 1 109.50000 418.400000
4950 12494 4952 1 109.50000 418.400000
4950 12494 4953 1 109.50000 418.400000
4951 12494 4952 1 109.50000 418.400000
4951 12494 4953 1 109.50000 418.400000
4952 12494 4953 1 109.50000 418.400000
180 12495 4954 1 109.50000 418.400000
180 12495 4955 1 109.50000 418.400000
180 12495 4956 1 109.50000 418.400000
4954 12495 4955 1 109.50000 418.400000
4954 12495 4956 1 109.50000 418.400000
4955 12495 4956 1 109.50000 418.400000
4957 12496 4958 1 109.50000 418.400000
4957 12496 4959 1 109.50000 418.400000
4957 12496 4960 1 109.50000 418.400000
4958 12496 4959 1 109.50000 418.400000
4958 12496 4960 1 109.50000 418.400000
4959 12496 4960 1 109.50000 418.400000
1777 12497 1943 1 109.50000 418.400000
1777 12497 4962 1 109.50000 418.400000
1777 12497 4963 1 109.50000 418.400000
1943 12497 4962 1 109.50000 418.400000
1943 12497 4963 1 109.50000 418.400000
4962 12497 4963 1 109.50000 418.400000
4780 12498 4964 1 109.50000 418.400000
4780 12498 4965 1 109.50000 418.400000
4780 12498 4966 1 109.50000 418.400000
4964 12498 4965 1 109.50000 418.400000
4964 12498 4966 1 109.50000 418.400000
4965 12498 4966 1 109.50000 418.400000
2296 12499 3299 1 109.50000 418.400000
2296 12499 4967 1 109.50000 418.400000
2296 12499 4968 1 109.50000 418.400000
3299 12499 4967 1 109.50000 418.400000
3299 12499 4968 1 109.50000 418.400000
4967 12499 4968 1 109.50000 418.400000
3679 12500 4969 1 109.50000 418.400000
3679 12500 4970 1 109.50000 418.400000
3679 12500 4971 1 109.50000 418.400000
4969 12500 4970 1 109.50000 418.400000
4969 12500 4971 1 109.50000 418.400000
4970 12500 4971 1 109.50000 418.400000
4972 12501 4973 1 109.50000 418.400000
4972 12501 4974 1 109.50000 418.400000
4972 12501 4975 1 109.50000 418.400000
4973 12501 4974 1 109.50000 418.400000
4973 12501 4975 1 109.50000 418.400000
4974 12501 4975 1 109.50000 418.400000
4244 12502 4976 1 109.50000 418.400000
4244 12502 4977 1 109.50000 418.400000
4244 12502 4978 1 109.50000 418.400000
4976 12502 4977 1 109.50000 418.400000
4976 12502 4978 1 109.50000 418.400000
4977 12502 4978 1 109.50000 418.400000
610 12503 1099 1 109.50000 418.400000
610 12503 4979 1 109.50000 418.400000
610 12503 4980 1 109.50000 418.400000
1099 12503 4979 1 109.50000 418.400000
1099 12503 4980 1 109.50000 418.400000
4979 12503 4980 1 109.50000 418.400000
4600 12504 4983 1 109.50000 418.400000
4600 12504 4984 1 109.50000 418.400000
4600 12504 4985 1 109.50000 418.400000
4983 12504 4984 1 109.50000 418.400000
4983 12504 4985 1 109.50000 418.400000
4984 12504 4985 1 109.50000 418.400000
4986 12505 4987 1 109.50000 418.400000
4986 12505 4988 1 109.50000 418.400000
4986 12505 11067 1 109.50000 418.400000
4987 12505 4988 1 109.50000 418.400000
4987 12505 11067 1 109.50000 418.400000
4988 12505 11067 1 109.50000 418.400000
2405 12506 3614 1 109.50000 418.400000
2405 12506 4381 1 109.50000 418.400000
2405 12506 4989 1 109.50000 418.400000
3614 12506 4381 1 109.50000 418.400000
3614 12506 4989 1 109.50000 418.400000
4381 12506 4989 1 109.50000 418.400000
366 12507 709 1 109.50000 418.400000
366 12507 4992 1 109.50000 418.400000
366 12507 4993 1 109.50000 418.400000
709 12507 4992 1 109.50000 418.400000
709 12507 4993 1 109.50000 418.400000
4992 12507 4993 1 109.50000 418.400000
4998 12508 4999 1 109.50000 418.400000
4998 12508 5000 1 109.50000 418.400000
4998 12508 5001 1 109.50000 418.400000
4999 12508 5000 1 109.50000 418.400000
4999 12508 5001 1 109.50000 418.400000
5000 12508 5001 1 109.50000 418.400000
4232 12509 5002 1 109.50000 418.400000
4232 12509 5003 1 109.50000 418.400000
4232 12509 5004 1 109.50000 418.400000
5002 12509 5003 1 109.50000 418.400000
5002 12509 5004 1 109.50000 418.400000
5003 12509 5004 1 109.50000 418.400000
3383 12510 5005 1 109.50000 418.400000
3383 12510 5006 1 109.50000 418.400000
3383 12510 5007 1 109.50000 418.400000
5005 12510 5006 1 109.50000 418.400000
5005 12510 5007 1 109.50000 418.400000
5006 12510 5007 1 109.50000 418.400000
1849 12511 2202 1 109.50000 418.400000
1849 12511 5008 1 109.50000 418.400000
1849 12511 5009 1 109.50000 418.400000
2202 12511 5008 1 109.50000 418.400000
2202 12511 5009 1 109.50000 418.400000
5008 12511 5009 1 109.50000 418.400000
5010 12512 5013 1 109.50000 418.400000
5010 12512 5858 1 109.50000 418.400000
5010 12512 7761 1 109.50000 418.400000
5013 12512 5858 1 109.50000 418.400000
5013 12512 7761 1 109.50000 418.400000
5858 12512 7761 1 109.50000 418.400000
5014 12513 5015 1 109.50000 418.400000
5014 12513 5016 1 109.50000 418.400000
5014 12513 5017 1 109.50000 418.400000
5015 12513 5016 1 109.50000 418.400000
5015 12513 5017 1 109.50000 418.400000
5016 12513 5017 1 109.50000 418.400000
1642 12514 5018 1 109.50000 418.400000
1642 12514 5019 1 109.50000 418.400000
1642 12514 5020 1 109.50000 418.400000
5018 12514 5019 1 109.50000 418.400000
5018 12514 5020 1 109.50000 418.400000
5019 12514 5020 1 109.50000 418.400000
2123 12515 3310 1 109.50000 418.400000
2123 12515 5021 1 109.50000 418.400000
2123 12515 10156 1 109.50000 418.400000
3310 12515 5021 1 109.50000 418.400000
3310 12515 10156 1 109.50000 418.400000
5021 12515 10156 1 109.50000 418.400000
5022 12516 5023 1 109.50000 418.400000
5022 12516 5024 1 109.50000 418.400000
5022 12516 5025 1 109.50000 418.400000
5023 12516 5024 1 109.50000 418.400000
5023 12516 5025 1 109.50000 418.400000
5024 12516 5025 1 109.50000 418.400000
2883 12517 3713 1 109.50000 418.400000
2883 12517 5026 1 109.50000 418.400000
2883 12517 5027 1 109.50000 418.400000
3713 12517 5026 1 109.50000 418.400000
3713 12517 5027 1 109.50000 418.400000
5026 12517 5027 1 109.50000 418.400000
446 12518 4191 1 109.50000 418.400000
446 12518 5029 1 109.50000 418.400000
446 12518 6715 1 109.50000 418.400000
4191 12518 5029 1 109.50000 418.400000
4191 12518 6715 1 109.50000 418.400000
5029 12518 6715 1 109.50000 418.400000
5032 12519 5033 1 109.50000 418.400000
5032 12519 5034 1 109.50000 418.400000
5032 12519 5035 1 109.50000 418.400000
5033 12519 5034 1 109.50000 418.400000
5033 12519 5035 1 109.50000 418.400000
5034 12519 5035 1 109.50000 418.400000
431 12520 3753 1 109.50000 418.400000
431 12520 5036 1 109.50000 418.400000
431 12520 5037 1 109.50000 418.400000
3753 12520 5036 1 109.50000 418.400000
3753 12520 5037 1 109.50000 418.400000
5036 12520 5037 1 109.50000 418.400000
5039 12521 5040 1 109.50000 418.400000
5039 12521 5041 1 109.50000 418.400000
5039 12521 5042 1 109.50000 418.400000
5040 12521 5041 1 109.50000 418.400000
5040 12521 5042 1 109.50000 418.400000
5041 12521 5042 1 109.50000 418.400000
4571 12522 5045 1 109.50000 418.400000
4571 12522 5046 1 109.50000 418.400000
4571 12522 5047 1 109.50000 418.400000
5045 12522 5046 1 109.50000 418.400000
5045 12522 5047 1 109.50000 418.400000
5046 12522 5047 1 109.50000 418.400000
5048 12523 5050 1 109.50000 418.400000
5048 12523 5051 1 109.50000 418.400000
5048 12523 11090 1 109.50000 418.400000
5050 12523 5051 1 109.50000 418.400000
5050 12523 11090 1 109.50000 418.400000
5051 12523 11090 1 109.50000 418.400000
2601 12524 4876 1 109.50000 418.400000
2601 12524 5052 1 109.50000 418.400000
2601 12524 5053 1 109.50000 418.400000
4876 12524 5052 1 109.50000 418.400000
4876 12524 5053 1 109.50000 418.400000
5052 12524 5053 1 109.50000 418.400000
4182 12525 5056 1 109.50000 418.400000
4182 12525 5057 1 109.50000 418.400000
4182 12525 5058 1 109.50000 418.400000
5056 12525 5057 1 109.50000 418.400000
5056 12525 5058 1 109.50000 418.400000
5057 12525 5058 1 109.50000 418.400000
1660 12526 4690 1 109.50000 418.400000
1660 12526 5060 1 109.50000 418.400000
1660 12526 5061 1 109.50000 418.400000
4690 12526 5060 1 109.50000 418.400000
4690 12526 5061 1 109.50000 418.400000
5060 12526 5061 1 109.50000 418.400000
1139 12527 5062 1 109.50000 418.400000
1139 12527 5063 1 109.50000 418.400000
1139 12527 5064 1 109.50000 418.400000
5062 12527 5063 1 109.50000 418.400000
5062 12527 5064 1 109.50000 418.400000
5063 12527 5064 1 109.50000 418.400000
647 12528 5065 1 109.50000 418.400000
647 12528 5066 1 109.50000 418.400000
647 12528 5067 1 109.50000 418.400000
5065 12528 5066 1 109.50000 418.400000
5065 12528 5067 1 109.50000 418.400000
5066 12528 5067 1 109.50000 418.400000
3535 12529 5068 1 109.50000 418.400000
3535 12529 5069 1 109.50000 418.400000
3535 12529 5070 1 109.50000 418.400000
5068 12529 5069 1 109.50000 418.400000
5068 12529 5070 1 109.50000 418.400000
5069 12529 5070 1 109.50000 418.400000
4545 12530 5071 1 109.50000 418.400000
4545 12530 5072 1 109.50000 418.400000
4545 12530 5073 1 109.50000 418.400000
5071 12530 5072 1 109.50000 418.400000
5071 12530 5073 1 109.50000 418.400000
5072 12530 5073 1 109.50000 418.400000
5074 12531 5075 1 109.50000 418.400000
5074 12531 5076 1 109.50000 418.400000
5074 12531 5077 1 109.50000 418.400000
5075 12531 5076 1 109.50000 418.400000
5075 12531 5077 1 109.50000 418.400000
5076 12531 5077 1 109.50000 418.400000
2142 12532 5078 1 109.50000 418.400000
2142 12532 5079 1 109.50000 418.400000
2142 12532 5080 1 109.50000 418.400000
5078 12532 5079 1 109.50000 418.400000
5078 12532 5080 1 109.50000 418.400000
5079 12532 5080 1 109.50000 418.400000
376 12533 2161 1 109.50000 418.400000
376 12533 5081 1 109.50000 418.400000
376 12533 5082 1 109.50000 418.400000
2161 12533 5081 1 109.50000 418.400000
2161 12533 5082 1 109.50000 418.400000
5081 12533 5082 1 109.50000 418.400000
35 12534 425 1 109.50000 418.400000
35 12534 5083 1 109.50000 418.400000
35 12534 5084 1 109.50000 418.400000
425 12534 5083 1 109.50000 418.400000
425 12534 5084 1 109.50000 418.400000
5083 12534 5084 1 109.50000 418.400000
4222 12535 5085 1 109.50000 418.400000
4222 12535 5086 1 109.50000 418.400000
4222 12535 5087 1 109.50000 418.400000
5085 12535 5086 1 109.50000 418.400000
5085 12535 5087 1 109.50000 418.400000
5086 12535 5087 1 109.50000 418.400000
5088 12536 5089 1 109.50000 418.400000
5088 12536 5090 1 109.50000 418.400000
5088 12536 5091 1 109.50000 418.400000
5089 12536 5090 1 109.50000 418.400000
5089 12536 5091 1 109.50000 418.400000
5090 12536 5091 1 109.50000 418.400000
5092 12537 5093 1 109.50000 418.400000
5092 12537 5094 1 109.50000 418.400000
5092 12537 5095 1 109.50000 418.400000
5093 12537 5094 1 109.50000 418.400000
5093 12537 5095 1 109.50000 418.400000
5094 12537 5095 1 109.50000 418.400000
5096 12538 5097 1 109.50000 418.400000
5096 12538 5098 1 109.50000 418.400000
5096 12538 5099 1 109.50000 418.400000
5097 12538 5098 1 109.50000 418.400000
5097 12538 5099 1 109.50000 418.400000
5098 12538 5099 1 109.50000 418.400000
5100 12539 5101 1 109.50000 418.400000
5100 12539 5102 1 109.50000 418.400000
5100 12539 5103 1 109.50000 418.400000
5101 12539 5102 1 109.50000 418.400000
5101 12539 5103 1 109.50000 418.400000
5102 12539 5103 1 109.50000 418.400000
2997 12540 4997 1 109.50000 418.400000
2997 12540 5106 1 109.50000 418.400000
2997 12540 5107 1 109.50000 418.400000
4997 12540 5106 1 109.50000 418.400000
4997 12540 5107 1 109.50000 418.400000
5106 12540 5107 1 109.50000 418.400000
5108 12541 5109 1 109.50000 418.400000
5108 12541 5110 1 109.50000 418.400000
5108 12541 5111 1 109.50000 418.400000
5109 12541 5110 1 109.50000 418.400000
5109 12541 5111 1 109.50000 418.400000
5110 12541 5111 1 109.50000 418.400000
5112 12542 5113 1 109.50000 418.400000
5112 12542 5114 1 109.50000 418.400000
5112 12542 6356 1 109.50000 418.400000
5113 12542 5114 1 109.50000 418.400000
5113 12542 6356 1 109.50000 418.400000
5114 12542 6356 1 109.50000 418.400000
2175 12543 4734 1 109.50000 418.400000
2175 12543 5116 1 109.50000 418.400000
2175 12543 5117 1 109.50000 418.400000
4734 12543 5116 1 109.50000 418.400000
4734 12543 5117 1 109.50000 418.400000
5116 12543 5117 1 109.50000 418.400000
5118 12544 5119 1 109.50000 418.400000
5118 12544 5120 1 109.50000 418.400000
5118 12544 5121 1 109.50000 418.400000
5119 12544 5120 1 109.50000 418.400000
5119 12544 5121 1 109.50000 418.400000
5120 12544 5121 1 109.50000 418.400000
360 12545 5122 1 109.50000 418.400000
360 12545 5123 1 109.50000 418.400000
360 12545 5124 1 109.50000 418.400000
5122 12545 5123 1 109.50000 418.400000
5122 12545 5124 1 109.50000 418.400000
5123 12545 5124 1 109.50000 418.400000
2806 12546 5123 1 109.50000 418.400000
2806 12546 5125 1 109.50000 418.400000
2806 12546 5126 1 109.50000 418.400000
5123 12546 5125 1 109.50000 418.400000
5123 12546 5126 1 109.50000 418.400000
5125 12546 5126 1 109.50000 418.400000
1653 12547 5127 1 109.50000 418.400000
1653 12547 5128 1 109.50000 418.400000
1653 12547 5129 1 109.50000 418.400000
5127 12547 5128 1 109.50000 418.400000
5127 12547 5129 1 109.50000 418.400000
5128 12547 5129 1 109.50000 418.400000
2109 12548 4061 1 109.50000 418.400000
2109 12548 5133 1 109.50000 418.400000
2109 12548 5134 1 109.50000 418.400000
4061 12548 5133 1 109.50000 418.400000
4061 12548 5134 1 109.50000 418.400000
5133 12548 5134 1 109.50000 418.400000
5137 12549 5138 1 109.50000 418.400000
5137 12549 5139 1 109.50000 418.400000
5137 12549 5140 1 109.50000 418.400000
5138 12549 5139 1 109.50000 418.400000
5138 12549 5140 1 109.50000 418.400000
5139 12549 5140 1 109.50000 418.400000
5144 12550 5145 1 109.50000 418.400000
5144 12550 5146 1 109.50000 418.400000
5144 12550 5147 1 109.50000 418.400000
5145 12550 5146 1 109.50000 418.400000
5145 12550 5147 1 109.50000 418.400000
5146 12550 5147 1 109.50000 418.400000
1770 12551 5148 1 109.50000 418.400000
1770 12551 5149 1 109.50000 418.400000
1770 12551 5150 1 109.50000 418.400000
5148 12551 5149 1 109.50000 418.400000
5148 12551 5150 1 109.50000 418.400000
5149 12551 5150 1 109.50000 418.400000
3180 12552 5151 1 109.50000 418.400000
3180 12552 5152 1 109.50000 418.400000
3180 12552 5153 1 109.50000 418.400000
5151 12552 5152 1 109.50000 418.400000
5151 12552 5153 1 109.50000 418.400000
5152 12552 5153 1 109.50000 418.400000
700 12553 5154 1 109.50000 418.400000
700 12553 5155 1 109.50000 418.400000
700 12553 5156 1 109.50000 418.400000
5154 12553 5155 1 109.50000 418.400000
5154 12553 5156 1 109.50000 418.400000
5155 12553 5156 1 109.50000 418.400000
5157 12554 5158 1 109.50000 418.400000
5157 12554 5159 1 109.50000 418.400000
5157 12554 5160 1 109.50000 418.400000
5158 12554 5159 1 109.50000 418.400000
5158 12554 5160 1 109.50000 418.400000
5159 12554 5160 1 109.50000 418.400000
293 12555 2937 1 109.50000 418.400000
293 12555 5162 1 109.50000 418.400000
293 12555 9999 1 109.50000 418.400000
2937 12555 5162 1 109.50000 418.400000
2937 12555 9999 1 109.50000 418.400000
5162 12555 9999 1 109.50000 418.400000
342 12556 4193 1 109.50000 418.400000
342 12556 5165 1 109.50000 418.400000
342 12556 5166 1 109.50000 418.400000
4193 12556 5165 1 109.50000 418.400000
4193 12556 5166 1 109.50000 418.400000
5165 12556 5166 1 109.50000 418.400000
1978 12557 2985 1 109.50000 418.400000
1978 12557 5167 1 109.50000 418.400000
1978 12557 5168 1 109.50000 418.400000
2985 12557 5167 1 109.50000 418.400000
2985 12557 5168 1 109.50000 418.400000
5167 12557 5168 1 109.50000 418.400000
1205 12558 3777 1 109.50000 418.400000
1205 12558 5169 1 109.50000 418.400000
1205 12558 5170 1 109.50000 418.400000
3777 12558 5169 1 109.50000 418.400000
3777 12558 5170 1 109.50000 418.400000
5169 12558 5170 1 109.50000 418.400000
2994 12559 3386 1 109.50000 418.400000
2994 12559 3688 1 109.50000 418.400000
2994 12559 5171 1 109.50000 418.400000
3386 12559 3688 1 109.50000 418.400000
3386 12559 5171 1 109.50000 418.400000
3688 12559 5171 1 109.50000 418.400000
5175 12560 5176 1 109.50000 418.400000
5175 12560 5177 1 109.50000 418.400000
5175 12560 5178 1 109.50000 418.400000
5176 12560 5177 1 109.50000 418.400000
5176 12560 5178 1 109.50000 418.400000
5177 12560 5178 1 109.50000 418.400000
3095 12561 5179 1 109.50000 418.400000
3095 12561 5180 1 109.50000 418.400000
3095 12561 5181 1 109.50000 418.400000
5179 12561 5180 1 109.50000 418.400000
5179 12561 5181 1 109.50000 418.400000
5180 12561 5181 1 109.50000 418.400000
2852 12562 5182 1 109.50000 418.400000
2852 12562 5183 1 109.50000 418.400000
2852 12562 5184 1 109.50000 418.400000
5182 12562 5183 1 109.50000 418.400000
5182 12562 5184 1 109.50000 418.400000
5183 12562 5184 1 109.50000 418.400000
5185 12563 5186 1 109.50000 418.400000
5185 12563 5187 1 109.50000 418.400000
5185 12563 5745 1 109.50000 418.400000
5186 12563 5187 1 109.50000 418.400000
5186 12563 5745 1 109.50000 418.400000
5187 12563 5745 1 109.50000 418.400000
2188 12564 3950 1 109.50000 418.400000
2188 12564 5008 1 109.50000 418.400000
2188 12564 5190 1 109.50000 418.400000
3950 12564 5008 1 109.50000 418.400000
3950 12564 5190 1 109.50000 418.400000
5008 12564 5190 1 109.50000 418.400000
4022 12565 5191 1 109.50000 418.400000
4022 12565 5192 1 109.50000 418.400000
4022 12565 5193 1 109.50000 418.400000
5191 12565 5192 1 109.50000 418.400000
5191 12565 5193 1 109.50000 418.400000
5192 12565 5193 1 109.50000 418.400000
2592 12566 5194 1 109.50000 418.400000
2592 12566 5195 1 109.50000 418.400000
2592 12566 5196 1 109.50000 418.400000
5194 12566 5195 1 109.50000 418.400000
5194 12566 5196 1 109.50000 418.400000
5195 12566 5196 1 109.50000 418.400000
4821 12567 5197 1 109.50000 418.400000
4821 12567 5198 1 109.50000 418.400000
4821 12567 5199 1 109.50000 418.400000
5197 12567 5198 1 109.50000 418.400000
5197 12567 5199 1 109.50000 418.400000
5198 12567 5199 1 109.50000 418.400000
987 12568 5200 1 109.50000 418.400000
987 12568 5201 1 109.50000 418.400000
987 12568 5202 1 109.50000 418.400000
5200 12568 5201 1 109.50000 418.400000
5200 12568 5202 1 109.50000 418.400000
5201 12568 5202 1 109.50000 418.400000
5203 12569 5204 1 109.50000 418.400000
5203 12569 5205 1 109.50000 418.400000
5203 12569 6479 1 109.50000 418.400000
5204 12569 5205 1 109.50000 418.400000
5204 12569 6479 1 109.50000 418.400000
5205 12569 6479 1 109.50000 418.400000
5206 12570 5208 1 109.50000 418.400000
5206 12570 5209 1 109.50000 418.400000
5206 12570 5955 1 109.50000 418.400000
5208 12570 5209 1 109.50000 418.400000
5208 12570 5955 1 109.50000 418.400000
5209 12570 5955 1 109.50000 418.400000
5210 12571 5211 1 109.50000 418.400000
5210 12571 5212 1 109.50000 418.400000
5210 12571 5213 1 109.50000 418.400000
5211 12571 5212 1 109.50000 418.400000
5211 12571 5213 1 109.50000 418.400000
5212 12571 5213 1 109.50000 418.400000
2023 12572 5214 1 109.50000 418.400000
2023 12572 5215 1 109.50000 418.400000
2023 12572 5216 1 109.50000 418.400000
5214 12572 5215 1 109.50000 418.400000
5214 12572 5216 1 109.50000 418.400000
5215 12572 5216 1 109.50000 418.400000
5217 12573 5218 1 109.50000 418.400000
5217 12573 5219 1 109.50000 418.400000
5217 12573 5220 1 109.50000 418.400000
5218 12573 5219 1 109.50000 418.400000
5218 12573 5220 1 109.50000 418.400000
5219 12573 5220 1 109.50000 418.400000
1204 12574 1782 1 109.50000 418.400000
1204 12574 3778 1 109.50000 418.400000
1204 12574 5222 1 109.50000 418.400000
1782 12574 3778 1 109.50000 418.400000
1782 12574 5222 1 109.50000 418.400000
3778 12574 5222 1 109.50000 418.400000
5224 12575 5225 1 109.50000 418.400000
5224 12575 5226 1 109.50000 418.400000
5224 12575 8421 1 109.50000 418.400000
5225 12575 5226 1 109.50000 418.400000
5225 12575 8421 1 109.50000 418.400000
5226 12575 8421 1 109.50000 418.400000
5227 12576 5228 1 109.50000 418.400000
5227 12576 5229 1 109.50000 418.400000
5227 12576 5230 1 109.50000 418.400000
5228 12576 5229 1 109.50000 418.400000
5228 12576 5230 1 109.50000 418.400000
5229 12576 5230 1 109.50000 418.400000
317 12577 5232 1 109.50000 418.400000
317 12577 5233 1 109.50000 418.400000
317 12577 10628 1 109.50000 418.400000
5232 12577 5233 1 109.50000 418.400000
5232 12577 10628 1 109.50000 418.400000
5233 12577 10628 1 109.50000 418.400000
1258 12578 3717 1 109.50000 418.400000
1258 12578 5236 1 109.50000 418.400000
1258 12578 5237 1 109.50000 418.400000
3717 12578 5236 1 109.50000 418.400000
3717 12578 5237 1 109.50000 418.400000
5236 12578 5237 1 109.50000 418.400000
5238 12579 5240 1 109.50000 418.400000
5238 12579 5241 1 109.50000 418.400000
5238 12579 9128 1 109.50000 418.400000
5240 12579 5241 1 109.50000 418.400000
5240 12579 9128 1 109.50000 418.400000
5241 12579 9128 1 109.50000 418.400000
5242 12580 5243 1 109.50000 418.400000
5242 12580 5244 1 109.50000 418.400000
5242 12580 5245 1 109.50000 418.400000
5243 12580 5244 1 109.50000 418.400000
5243 12580 5245 1 109.50000 418.400000
5244 12580 5245 1 109.50000 418.400000
1497 12581 5246 1 109.50000 418.400000
1497 12581 5247 1 109.50000 418.400000
1497 12581 5248 1 109.50000 418.400000
5246 12581 5247 1 109.50000 418.400000
5246 12581 5248 1 109.50000 418.400000
5247 12581 5248 1 109.50000 418.400000
5249 12582 5250 1 109.50000 418.400000
5249 12582 5251 1 109.50000 418.400000
5249 12582 11218 1 109.50000 418.400000
5250 12582 5251 1 109.50000 418.400000
5250 12582 11218 1 109.50000 418.400000
5251 12582 11218 1 109.50000 418.400000
5253 12583 5254 1 109.50000 418.400000
5253 12583 5255 1 109.50000 418.400000
5253 12583 6222 1 109.50000 418.400000
5254 12583 5255 1 109.50000 418.400000
5254 12583 6222 1 109.50000 418.400000
5255 12583 6222 1 109.50000 418.400000
3632 12584 4521 1 109.50000 418.400000
3632 12584 5258 1 109.50000 418.400000
3632 12584 5259 1 109.50000 418.400000
4521 12584 5258 1 109.50000 418.400000
4521 12584 5259 1 109.50000 418.400000
5258 12584 5259 1 109.50000 418.400000
561 12585 5262 1 109.50000 418.400000
561 12585 5263 1 109.50000 418.400000
561 12585 5264 1 109.50000 418.400000
5262 12585 5263 1 109.50000 418.400000
5262 12585 5264 1 109.50000 418.400000
5263 12585 5264 1 109.50000 418.400000
1242 12586 5265 1 109.50000 418.400000
1242 12586 5266 1 109.50000 418.400000
1242 12586 9329 1 109.50000 418.400000
5265 12586 5266 1 109.50000 418.400000
5265 12586 9329 1 109.50000 418.400000
5266 12586 9329 1 109.50000 418.400000
5267 12587 5268 1 109.50000 418.400000
5267 12587 5269 1 109.50000 418.400000
5267 12587 5270 1 109.50000 418.400000
5268 12587 5269 1 109.50000 418.400000
5268 12587 5270 1 109.50000 418.400000
5269 12587 5270 1 109.50000 418.400000
1309 12588 5271 1 109.50000 418.400000
1309 12588 5272 1 109.50000 418.400000
1309 12588 5273 1 109.50000 418.400000
5271 12588 5272 1 109.50000 418.400000
5271 12588 5273 1 109.50000 418.400000
5272 12588 5273 1 109.50000 418.400000
848 12589 5274 1 109.50000 418.400000
848 12589 5275 1 109.50000 418.400000
848 12589 5276 1 109.50000 418.400000
5274 12589 5275 1 109.50000 418.400000
5274 12589 5276 1 109.50000 418.400000
5275 12589 5276 1 109.50000 418.400000
5277 12590 5278 1 109.50000 418.400000
5277 12590 5279 1 109.50000 418.400000
5277 12590 5280 1 109.50000 418.400000
5278 12590 5279 1 109.50000 418.400000
5278 12590 5280 1 109.50000 418.400000
5279 12590 5280 1 109.50000 418.400000
5281 12591 5282 1 109.50000 418.400000
5281 12591 5283 1 109.50000 418.400000
5281 12591 5284 1 109.50000 418.400000
5282 12591 5283 1 109.50000 418.400000
5282 12591 5284 1 109.50000 418.400000
5283 12591 5284 1 109.50000 418.400000
432 12592 674 1 109.50000 418.400000
432 12592 5285 1 109.50000 418.400000
432 12592 5286 1 109.50000 418.400000
674 12592 5285 1 109.50000 418.400000
674 12592 5286 1 109.50000 418.400000
5285 12592 5286 1 109.50000 418.400000
2789 12593 5289 1 109.50000 418.400000
2789 12593 5290 1 109.50000 418.400000
2789 12593 5291 1 109.50000 418.400000
5289 12593 5290 1 109.50000 418.400000
5289 12593 5291 1 109.50000 418.400000
5290 12593 5291 1 109.50000 418.400000
861 12594 5292 1 109.50000 418.400000
861 12594 5293 1 109.50000 418.400000
861 12594 5294 1 109.50000 418.400000
5292 12594 5293 1 109.50000 418.400000
5292 12594 5294 1 109.50000 418.400000
5293 12594 5294 1 109.50000 418.400000
25 12595 5295 1 109.50000 418.400000
25 12595 5296 1 109.50000 418.400000
25 12595 5297 1 109.50000 418.400000
5295 12595 5296 1 109.50000 418.400000
5295 12595 5297 1 109.50000 418.400000
5296 12595 5297 1 109.50000 418.400000
336 12596 5300 1 109.50000 418.400000
336 12596 5301 1 109.50000 418.400000
336 12596 5302 1 109.50000 418.400000
5300 12596 5301 1 109.50000 418.400000
5300 12596 5302 1 109.50000 418.400000
5301 12596 5302 1 109.50000 418.400000
1174 12597 1666 1 109.50000 418.400000
1174 12597 5303 1 109.50000 418.400000
1174 12597 5304 1 109.50000 418.400000
1666 12597 5303 1 109.50000 418.400000
1666 12597 5304 1 109.50000 418.400000
5303 12597 5304 1 109.50000 418.400000
804 12598 5305 1 109.50000 418.400000
804 12598 5306 1 109.50000 418.400000
804 12598 5307 1 109.50000 418.400000
5305 12598 5306 1 109.50000 418.400000
5305 12598 5307 1 109.50000 418.400000
5306 12598 5307 1 109.50000 418.400000
5308 12599 5309 1 109.50000 418.400000
5308 12599 5310 1 109.50000 418.400000
5308 12599 5311 1 109.50000 418.400000
5309 12599 5310 1 109.50000 418.400000
5309 12599 5311 1 109.50000 418.400000
5310 12599 5311 1 109.50000 418.400000
608 12600 1963 1 109.50000 418.400000
608 12600 4210 1 109.50000 418.400000
608 12600 5312 1 109.50000 418.400000
1963 12600 4210 1 109.50000 418.400000
1963 12600 5312 1 109.50000 418.400000
4210 12600 5312 1 109.50000 418.400000
5313 12601 5314 1 109.50000 418.400000
5313 12601 5315 1 109.50000 418.400000
5313 12601 5316 1 109.50000 418.400000
5314 12601 5315 1 109.50000 418.400000
5314 12601 5316 1 109.50000 418.400000
5315 12601 5316 1 109.50000 418.400000
5317 12602 5318 1 109.50000 418.400000
5317 12602 5319 1 109.50000 418.400000
5317 12602 5320 1 109.50000 418.400000
5318 12602 5319 1 109.50000 418.400000
5318 12602 5320 1 109.50000 418.400000
5319 12602 5320 1 109.50000 418.400000
1196 12603 5321 1 109.50000 418.400000
1196 12603 5322 1 109.50000 418.400000
1196 12603 5323 1 109.50000 418.400000
5321 12603 5322 1 109.50000 418.400000
5321 12603 5323 1 109.50000 418.400000
5322 12603 5323 1 109.50000 418.400000
2764 12604 5326 1 109.50000 418.400000
2764 12604 5327 1 109.50000 418.400000
2764 12604 5328 1 109.50000 418.400000
5326 12604 5327 1 109.50000 418.400000
5326 12604 5328 1 109.50000 418.400000
5327 12604 5328 1 109.50000 418.400000
1792 12605 4654 1 109.50000 418.400000
1792 12605 5158 1 109.50000 418.400000
1792 12605 5329 1 109.50000 418.400000
4654 12605 5158 1 109.50000 418.400000
4654 12605 5329 1 109.50000 418.400000
5158 12605 5329 1 109.50000 418.400000
1317 12606 5330 1 109.50000 418.400000
1317 12606 5331 1 109.50000 418.400000
1317 12606 5332 1 109.50000 418.400000
5330 12606 5331 1 109.50000 418.400000
5330 12606 5332 1 109.50000 418.400000
5331 12606 5332 1 109.50000 418.400000
3331 12607 4327 1 109.50000 418.400000
3331 12607 5333 1 109.50000 418.400000
3331 12607 5334 1 109.50000 418.400000
4327 12607 5333 1 109.50000 418.400000
4327 12607 5334 1 109.50000 418.400000
5333 12607 5334 1 109.50000 418.400000
5336 12608 9892 1 109.50000 418.400000
5336 12608 10576 1 109.50000 418.400000
5336 12608 10681 1 109.50000 418.400000
9892 12608 10576 1 109.50000 418.400000
9892 12608 10681 1 109.50000 418.400000
10576 12608 10681 1 109.50000 418.400000
5308 12609 5339 1 109.50000 418.400000
5308 12609 5340 1 109.50000 418.400000
5308 12609 5341 1 109.50000 418.400000
5339 12609 5340 1 109.50000 418.400000
5339 12609 5341 1 109.50000 418.400000
5340 12609 5341 1 109.50000 418.400000
268 12610 1769 1 109.50000 418.400000
268 12610 5342 1 109.50000 418.400000
268 12610 5343 1 109.50000 418.400000
1769 12610 5342 1 109.50000 418.400000
1769 12610 5343 1 109.50000 418.400000
5342 12610 5343 1 109.50000 418.400000
454 12611 5345 1 109.50000 418.400000
454 12611 5346 1 109.50000 418.400000
454 12611 5347 1 109.50000 418.400000
5345 12611 5346 1 109.50000 418.400000
5345 12611 5347 1 109.50000 418.400000
5346 12611 5347 1 109.50000 418.400000
3794 12612 5348 1 109.50000 418.400000
3794 12612 5349 1 109.50000 418.400000
3794 12612 5350 1 109.50000 418.400000
5348 12612 5349 1 109.50000 418.400000
5348 12612 5350 1 109.50000 418.400000
5349 12612 5350 1 109.50000 418.400000
2025 12613 5351 1 109.50000 418.400000
2025 12613 6810 1 109.50000 418.400000
2025 12613 11169 1 109.50000 418.400000
5351 12613 6810 1 109.50000 418.400000
5351 12613 11169 1 109.50000 418.400000
6810 12613 11169 1 109.50000 418.400000
4901 12614 5155 1 109.50000 418.400000
4901 12614 5354 1 109.50000 418.400000
4901 12614 5355 1 109.50000 418.400000
5155 12614 5354 1 109.50000 418.400000
5155 12614 5355 1 109.50000 418.400000
5354 12614 5355 1 109.50000 418.400000
5357 12615 5358 1 109.50000 418.400000
5357 12615 5359 1 109.50000 418.400000
5357 12615 5360 1 109.50000 418.400000
5358 12615 5359 1 109.50000 418.400000
5358 12615 5360 1 109.50000 418.400000
5359 12615 5360 1 109.50000 418.400000
2087 12616 5361 1 109.50000 418.400000
2087 12616 5362 1 109.50000 418.400000
2087 12616 5363 1 109.50000 418.400000
5361 12616 5362 1 109.50000 418.400000
5361 12616 5363 1 109.50000 418.400000
5362 12616 5363 1 109.50000 418.400000
130 12617 1376 1 109.50000 418.400000
130 12617 5364 1 109.50000 418.400000
130 12617 5365 1 109.50000 418.400000
1376 12617 5364 1 109.50000 418.400000
1376 12617 5365 1 109.50000 418.400000
5364 12617 5365 1 109.50000 418.400000
4024 12618 5366 1 109.50000 418.400000
4024 12618 5367 1 109.50000 418.400000
4024 12618 5368 1 109.50000 418.400000
5366 12618 5367 1 109.50000 418.400000
5366 12618 5368 1 109.50000 418.400000
5367 12618 5368 1 109.50000 418.400000
3416 12619 5369 1 109.50000 418.400000
3416 12619 5370 1 109.50000 418.400000
3416 12619 5371 1 109.50000 418.400000
5369 12619 5370 1 109.50000 418.400000
5369 12619 5371 1 109.50000 418.400000
5370 12619 5371 1 109.50000 418.400000
1613 12620 2514 1 109.50000 418.400000
1613 12620 3459 1 109.50000 418.400000
1613 12620 5372 1 109.50000 418.400000
2514 12620 3459 1 109.50000 418.400000
2514 12620 5372 1 109.50000 418.400000
3459 12620 5372 1 109.50000 418.400000
5377 12621 5378 1 109.50000 418.400000
5377 12621 5419 1 109.50000 418.400000
5377 12621 7144 1 109.50000 418.400000
5378 12621 5419 1 109.50000 418.400000
5378 12621 7144 1 109.50000 418.400000
5419 12621 7144 1 109.50000 418.400000
2851 12622 4924 1 109.50000 418.400000
2851 12622 5379 1 109.50000 418.400000
2851 12622 5380 1 109.50000 418.400000
4924 12622 5379 1 109.50000 418.400000
4924 12622 5380 1 109.50000 418.400000
5379 12622 5380 1 109.50000 418.400000
858 12623 871 1 109.50000 418.400000
858 12623 966 1 109.50000 418.400000
858 12623 5381 1 109.50000 418.400000
871 12623 966 1 109.50000 418.400000
871 12623 5381 1 109.50000 418.400000
966 12623 5381 1 109.50000 418.400000
1147 12624 5382 1 109.50000 418.400000
1147 12624 5383 1 109.50000 418.400000
1147 12624 5384 1 109.50000 418.400000
5382 12624 5383 1 109.50000 418.400000
5382 12624 5384 1 109.50000 418.400000
5383 12624 5384 1 109.50000 418.400000
5181 12625 5385 1 109.50000 418.400000
5181 12625 5386 1 109.50000 418.400000
5181 12625 5387 1 109.50000 418.400000
5385 12625 5386 1 109.50000 418.400000
5385 12625 5387 1 109.50000 418.400000
5386 12625 5387 1 109.50000 418.400000
3806 12626 5388 1 109.50000 418.400000
3806 12626 5389 1 109.50000 418.400000
3806 12626 5390 1 109.50000 418.400000
5388 12626 5389 1 109.50000 418.400000
5388 12626 5390 1 109.50000 418.400000
5389 12626 5390 1 109.50000 418.400000
5395 12627 5396 1 109.50000 418.400000
5395 12627 5397 1 109.50000 418.400000
5395 12627 5398 1 109.50000 418.400000
5396 12627 5397 1 109.50000 418.400000
5396 12627 5398 1 109.50000 418.400000
5397 12627 5398 1 109.50000 418.400000
5399 12628 5400 1 109.50000 418.400000
5399 12628 5401 1 109.50000 418.400000
5399 12628 5402 1 109.50000 418.400000
5400 12628 5401 1 109.50000 418.400000
5400 12628 5402 1 109.50000 418.400000
5401 12628 5402 1 109.50000 418.400000
5276 12629 5403 1 109.50000 418.400000
5276 12629 5404 1 109.50000 418.400000
5276 12629 5405 1 109.50000 418.400000
5403 12629 5404 1 109.50000 418.400000
5403 12629 5405 1 109.50000 418.400000
5404 12629 5405 1 109.50000 418.400000
4678 12630 5406 1 109.50000 418.400000
4678 12630 5407 1 109.50000 418.400000
4678 12630 5408 1 109.50000 418.400000
5406 12630 5407 1 109.50000 418.400000
5406 12630 5408 1 109.50000 418.400000
5407 12630 5408 1 109.50000 418.400000
315 12631 1617 1 109.50000 418.400000
315 12631 5409 1 109.50000 418.400000
315 12631 5410 1 109.50000 418.400000
1617 12631 5409 1 109.50000 418.400000
1617 12631 5410 1 109.50000 418.400000
5409 12631 5410 1 109.50000 418.400000
2695 12632 5124 1 109.50000 418.400000
2695 12632 5411 1 109.50000 418.400000
2695 12632 5412 1 109.50000 418.400000
5124 12632 5411 1 109.50000 418.400000
5124 12632 5412 1 109.50000 418.400000
5411 12632 5412 1 109.50000 418.400000
5370 12633 5417 1 109.50000 418.400000
5370 12633 5418 1 109.50000 418.400000
5370 12633 5419 1 109.50000 418.400000
5417 12633 5418 1 109.50000 418.400000
5417 12633 5419 1 109.50000 418.400000
5418 12633 5419 1 109.50000 418.400000
5420 12634 5421 1 109.50000 418.400000
5420 12634 5422 1 109.50000 418.400000
5420 12634 5423 1 109.50000 418.400000
5421 12634 5422 1 109.50000 418.400000
5421 12634 5423 1 109.50000 418.400000
5422 12634 5423 1 109.50000 418.400000
2388 12635 5424 1 109.50000 418.400000
2388 12635 5425 1 109.50000 418.400000
2388 12635 5426 1 109.50000 418.400000
5424 12635 5425 1 109.50000 418.400000
5424 12635 5426 1 109.50000 418.400000
5425 12635 5426 1 109.50000 418.400000
5429 12636 5430 1 109.50000 418.400000
5429 12636 7418 1 109.50000 418.400000
5429 12636 9923 1 109.50000 418.400000
5430 12636 7418 1 109.50000 418.400000
5430 12636 9923 1 109.50000 418.400000
7418 12636 9923 1 109.50000 418.400000
3245 12637 5431 1 109.50000 418.400000
3245 12637 5432 1 109.50000 418.400000
3245 12637 5433 1 109.50000 418.400000
5431 12637 5432 1 109.50000 418.400000
5431 12637 5433 1 109.50000 418.400000
5432 12637 5433 1 109.50000 418.400000
3037 12638 5434 1 109.50000 418.400000
3037 12638 5435 1 109.50000 418.400000
3037 12638 5436 1 109.50000 418.400000
5434 12638 5435 1 109.50000 418.400000
5434 12638 5436 1 109.50000 418.400000
5435 12638 5436 1 109.50000 418.400000
5437 12639 5438 1 109.50000 418.400000
5437 12639 5439 1 109.50000 418.400000
5437 12639 9159 1 109.50000 418.400000
5438 12639 5439 1 109.50000 418.400000
5438 12639 9159 1 109.50000 418.400000
5439 12639 9159 1 109.50000 418.400000
1129 12640 5441 1 109.50000 418.400000
1129 12640 5442 1 109.50000 418.400000
1129 12640 5443 1 109.50000 418.400000
5441 12640 5442 1 109.50000 418.400000
5441 12640 5443 1 109.50000 418.400000
5442 12640 5443 1 109.50000 418.400000
2527 12641 5446 1 109.50000 418.400000
2527 12641 5447 1 109.50000 418.400000
2527 12641 8593 1 109.50000 418.400000
5446 12641 5447 1 109.50000 418.400000
5446 12641 8593 1 109.50000 418.400000
5447 12641 8593 1 109.50000 418.400000
5318 12642 5448 1 109.50000 418.400000
5318 12642 5449 1 109.50000 418.400000
5318 12642 9465 1 109.50000 418.400000
5448 12642 5449 1 109.50000 418.400000
5448 12642 9465 1 109.50000 418.400000
5449 12642 9465 1 109.50000 418.400000
1720 12643 1721 1 109.50000 418.400000
1720 12643 1722 1 109.50000 418.400000
1720 12643 5450 1 109.50000 418.400000
1721 12643 1722 1 109.50000 418.400000
1721 12643 5450 1 109.50000 418.400000
1722 12643 5450 1 109.50000 418.400000
484 12644 5453 1 109.50000 418.400000
484 12644 5454 1 109.50000 418.400000
484 12644 5455 1 109.50000 418.400000
5453 12644 5454 1 109.50000 418.400000
5453 12644 5455 1 109.50000 418.400000
5454 12644 5455 1 109.50000 418.400000
5456 12645 5457 1 109.50000 418.400000
5456 12645 5458 1 109.50000 418.400000
5456 12645 5459 1 109.50000 418.400000
5457 12645 5458 1 109.50000 418.400000
5457 12645 5459 1 109.50000 418.400000
5458 12645 5459 1 109.50000 418.400000
5460 12646 5461 1 109.50000 418.400000
5460 12646 5462 1 109.50000 418.400000
5460 12646 5463 1 109.50000 418.400000
5461 12646 5462 1 109.50000 418.400000
5461 12646 5463 1 109.50000 418.400000
5462 12646 5463 1 109.50000 418.400000
246 12647 682 1 109.50000 418.400000
246 12647 3393 1 109.50000 418.400000
246 12647 3439 1 109.50000 418.400000
682 12647 3393 1 109.50000 418.400000
682 12647 3439 1 109.50000 418.400000
3393 12647 3439 1 109.50000 418.400000
4891 12648 5404 1 109.50000 418.400000
4891 12648 5465 1 109.50000 418.400000
4891 12648 5466 1 109.50000 418.400000
5404 12648 5465 1 109.50000 418.400000
5404 12648 5466 1 109.50000 418.400000
5465 12648 5466 1 109.50000 418.400000
2670 12649 4756 1 109.50000 418.400000
2670 12649 5470 1 109.50000 418.400000
2670 12649 5471 1 109.50000 418.400000
4756 12649 5470 1 109.50000 418.400000
4756 12649 5471 1 109.50000 418.400000
5470 12649 5471 1 109.50000 418.400000
542 12650 2211 1 109.50000 418.400000
542 12650 5474 1 109.50000 418.400000
542 12650 5475 1 109.50000 418.400000
2211 12650 5474 1 109.50000 418.400000
2211 12650 5475 1 109.50000 418.400000
5474 12650 5475 1 109.50000 418.400000
902 12651 903 1 109.50000 418.400000
902 12651 904 1 109.50000 418.400000
902 12651 905 1 109.50000 418.400000
903 12651 904 1 109.50000 418.400000
903 12651 905 1 109.50000 418.400000
904 12651 905 1 109.50000 418.400000
2356 12652 3115 1 109.50000 418.400000
2356 12652 5477 1 109.50000 418.400000
2356 12652 5478 1 109.50000 418.400000
3115 12652 5477 1 109.50000 418.400000
3115 12652 5478 1 109.50000 418.400000
5477 12652 5478 1 109.50000 418.400000
5479 12653 5480 1 109.50000 418.400000
5479 12653 5481 1 109.50000 418.400000
5479 12653 5482 1 109.50000 418.400000
5480 12653 5481 1 109.50000 418.400000
5480 12653 5482 1 109.50000 418.400000
5481 12653 5482 1 109.50000 418.400000
3743 12654 5483 1 109.50000 418.400000
3743 12654 5484 1 109.50000 418.400000
3743 12654 5485 1 109.50000 418.400000
5483 12654 5484 1 109.50000 418.400000
5483 12654 5485 1 109.50000 418.400000
5484 12654 5485 1 109.50000 418.400000
4085 12655 5486 1 109.50000 418.400000
4085 12655 5487 1 109.50000 418.400000
4085 12655 11177 1 109.50000 418.400000
5486 12655 5487 1 109.50000 418.400000
5486 12655 11177 1 109.50000 418.400000
5487 12655 11177 1 109.50000 418.400000
1791 12656 5488 1 109.50000 418.400000
1791 12656 5489 1 109.50000 418.400000
1791 12656 5490 1 109.50000 418.400000
5488 12656 5489 1 109.50000 418.400000
5488 12656 5490 1 109.50000 418.400000
5489 12656 5490 1 109.50000 418.400000
1779 12657 5491 1 109.50000 418.400000
1779 12657 5492 1 109.50000 418.400000
1779 12657 5493 1 109.50000 418.400000
5491 12657 5492 1 109.50000 418.400000
5491 12657 5493 1 109.50000 418.400000
5492 12657 5493 1 109.50000 418.400000
2236 12658 2625 1 109.50000 418.400000
2236 12658 5494 1 109.50000 418.400000
2236 12658 5495 1 109.50000 418.400000
2625 12658 5494 1 109.50000 418.400000
2625 12658 5495 1 109.50000 418.400000
5494 12658 5495 1 109.50000 418.400000
4459 12659 4750 1 109.50000 418.400000
4459 12659 5499 1 109.50000 418.400000
4459 12659 5500 1 109.50000 418.400000
4750 12659 5499 1 109.50000 418.400000
4750 12659 5500 1 109.50000 418.400000
5499 12659 5500 1 109.50000 418.400000
3448 12660 5504 1 109.50000 418.400000
3448 12660 5505 1 109.50000 418.400000
3448 12660 5506 1 109.50000 418.400000
5504 12660 5505 1 109.50000 418.400000
5504 12660 5506 1 109.50000 418.400000
5505 12660 5506 1 109.50000 418.400000
5357 12661 5507 1 109.50000 418.400000
5357 12661 5508 1 109.50000 418.400000
5357 12661 5509 1 109.50000 418.400000
5507 12661 5508 1 109.50000 418.400000
5507 12661 5509 1 109.50000 418.400000
5508 12661 5509 1 109.50000 418.400000
3575 12662 3876 1 109.50000 418.400000
3575 12662 5510 1 109.50000 418.400000
3575 12662 5511 1 109.50000 418.400000
3876 12662 5510 1 109.50000 418.400000
3876 12662 5511 1 109.50000 418.400000
5510 12662 5511 1 109.50000 418.400000
5512 12663 5513 1 109.50000 418.400000
5512 12663 5514 1 109.50000 418.400000
5512 12663 5515 1 109.50000 418.400000
5513 12663 5514 1 109.50000 418.400000
5513 12663 5515 1 109.50000 418.400000
5514 12663 5515 1 109.50000 418.400000
1677 12664 5517 1 109.50000 418.400000
1677 12664 5518 1 109.50000 418.400000
1677 12664 5519 1 109.50000 418.400000
5517 12664 5518 1 109.50000 418.400000
5517 12664 5519 1 109.50000 418.400000
5518 12664 5519 1 109.50000 418.400000
5156 12665 5520 1 109.50000 418.400000
5156 12665 5521 1 109.50000 418.400000
5156 12665 5522 1 109.50000 418.400000
5520 12665 5521 1 109.50000 418.400000
5520 12665 5522 1 109.50000 418.400000
5521 12665 5522 1 109.50000 418.400000
546 12666 3176 1 109.50000 418.400000
546 12666 5523 1 109.50000 418.400000
546 12666 5524 1 109.50000 418.400000
3176 12666 5523 1 109.50000 418.400000
3176 12666 5524 1 109.50000 418.400000
5523 12666 5524 1 109.50000 418.400000
1062 12667 1503 1 109.50000 418.400000
1062 12667 5439 1 109.50000 418.400000
1062 12667 5525 1 109.50000 418.400000
1503 12667 5439 1 109.50000 418.400000
1503 12667 5525 1 109.50000 418.400000
5439 12667 5525 1 109.50000 418.400000
5528 12668 5529 1 109.50000 418.400000
5528 12668 5530 1 109.50000 418.400000
5528 12668 5531 1 109.50000 418.400000
5529 12668 5530 1 109.50000 418.400000
5529 12668 5531 1 109.50000 418.400000
5530 12668 5531 1 109.50000 418.400000
4774 12669 5532 1 109.50000 418.400000
4774 12669 5533 1 109.50000 418.400000
4774 12669 5534 1 109.50000 418.400000
5532 12669 5533 1 109.50000 418.400000
5532 12669 5534 1 109.50000 418.400000
5533 12669 5534 1 109.50000 418.400000
2244 12670 2872 1 109.50000 418.400000
2244 12670 5535 1 109.50000 418.400000
2244 12670 5536 1 109.50000 418.400000
2872 12670 5535 1 109.50000 418.400000
2872 12670 5536 1 109.50000 418.400000
5535 12670 5536 1 109.50000 418.400000
2081 12671 5537 1 109.50000 418.400000
2081 12671 5538 1 109.50000 418.400000
2081 12671 5539 1 109.50000 418.400000
5537 12671 5538 1 109.50000 418.400000
5537 12671 5539 1 109.50000 418.400000
5538 12671 5539 1 109.50000 418.400000
1863 12672 2232 1 109.50000 418.400000
1863 12672 5542 1 109.50000 418.400000
1863 12672 5543 1 109.50000 418.400000
2232 12672 5542 1 109.50000 418.400000
2232 12672 5543 1 109.50000 418.400000
5542 12672 5543 1 109.50000 418.400000
5544 12673 5546 1 109.50000 418.400000
5544 12673 5547 1 109.50000 418.400000
5544 12673 7953 1 109.50000 418.400000
5546 12673 5547 1 109.50000 418.400000
5546 12673 7953 1 109.50000 418.400000
5547 12673 7953 1 109.50000 418.400000
3291 12674 3293 1 109.50000 418.400000
3291 12674 5548 1 109.50000 418.400000
3291 12674 5549 1 109.50000 418.400000
3293 12674 5548 1 109.50000 418.400000
3293 12674 5549 1 109.50000 418.400000
5548 12674 5549 1 109.50000 418.400000
5553 12675 5554 1 109.50000 418.400000
5553 12675 5555 1 109.50000 418.400000
5553 12675 5556 1 109.50000 418.400000
5554 12675 5555 1 109.50000 418.400000
5554 12675 5556 1 109.50000 418.400000
5555 12675 5556 1 109.50000 418.400000
1251 12676 5557 1 109.50000 418.400000
1251 12676 5558 1 109.50000 418.400000
1251 12676 5559 1 109.50000 418.400000
5557 12676 5558 1 109.50000 418.400000
5557 12676 5559 1 109.50000 418.400000
5558 12676 5559 1 109.50000 418.400000
2475 12677 3749 1 109.50000 418.400000
2475 12677 5560 1 109.50000 418.400000
2475 12677 5561 1 109.50000 418.400000
3749 12677 5560 1 109.50000 418.400000
3749 12677 5561 1 109.50000 418.400000
5560 12677 5561 1 109.50000 418.400000
2257 12678 5562 1 109.50000 418.400000
2257 12678 5563 1 109.50000 418.400000
2257 12678 5564 1 109.50000 418.400000
5562 12678 5563 1 109.50000 418.400000
5562 12678 5564 1 109.50000 418.400000
5563 12678 5564 1 109.50000 418.400000
3056 12679 5565 1 109.50000 418.400000
3056 12679 5566 1 109.50000 418.400000
3056 12679 5567 1 109.50000 418.400000
5565 12679 5566 1 109.50000 418.400000
5565 12679 5567 1 109.50000 418.400000
5566 12679 5567 1 109.50000 418.400000
1427 12680 5568 1 109.50000 418.400000
1427 12680 5569 1 109.50000 418.400000
1427 12680 5570 1 109.50000 418.400000
5568 12680 5569 1 109.50000 418.400000
5568 12680 5570 1 109.50000 418.400000
5569 12680 5570 1 109.50000 418.400000
2577 12681 3565 1 109.50000 418.400000
2577 12681 3648 1 109.50000 418.400000
2577 12681 5571 1 109.50000 418.400000
3565 12681 3648 1 109.50000 418.400000
3565 12681 5571 1 109.50000 418.400000
3648 12681 5571 1 109.50000 418.400000
1611 12682 5574 1 109.50000 418.400000
1611 12682 5575 1 109.50000 418.400000
1611 12682 5576 1 109.50000 418.400000
5574 12682 5575 1 109.50000 418.400000
5574 12682 5576 1 109.50000 418.400000
5575 12682 5576 1 109.50000 418.400000
4927 12683 5582 1 109.50000 418.400000
4927 12683 5583 1 109.50000 418.400000
4927 12683 5584 1 109.50000 418.400000
5582 12683 5583 1 109.50000 418.400000
5582 12683 5584 1 109.50000 418.400000
5583 12683 5584 1 109.50000 418.400000
3186 12684 4354 1 109.50000 418.400000
3186 12684 5585 1 109.50000 418.400000
3186 12684 5586 1 109.50000 418.400000
4354 12684 5585 1 109.50000 418.400000
4354 12684 5586 1 109.50000 418.400000
5585 12684 5586 1 109.50000 418.400000
5587 12685 5588 1 109.50000 418.400000
5587 12685 5589 1 109.50000 418.400000
5587 12685 5590 1 109.50000 418.400000
5588 12685 5589 1 109.50000 418.400000
5588 12685 5590 1 109.50000 418.400000
5589 12685 5590 1 109.50000 418.400000
4079 12686 5591 1 109.50000 418.400000
4079 12686 5592 1 109.50000 418.400000
4079 12686 5593 1 109.50000 418.400000
5591 12686 5592 1 109.50000 418.400000
5591 12686 5593 1 109.50000 418.400000
5592 12686 5593 1 109.50000 418.400000
5594 12687 5595 1 109.50000 418.400000
5594 12687 5596 1 109.50000 418.400000
5594 12687 5597 1 109.50000 418.400000
5595 12687 5596 1 109.50000 418.400000
5595 12687 5597 1 109.50000 418.400000
5596 12687 5597 1 109.50000 418.400000
1426 12688 5598 1 109.50000 418.400000
1426 12688 5599 1 109.50000 418.400000
1426 12688 5820 1 109.50000 418.400000
5598 12688 5599 1 109.50000 418.400000
5598 12688 5820 1 109.50000 418.400000
5599 12688 5820 1 109.50000 418.400000
2277 12689 5600 1 109.50000 418.400000
2277 12689 5601 1 109.50000 418.400000
2277 12689 7655 1 109.50000 418.400000
5600 12689 5601 1 109.50000 418.400000
5600 12689 7655 1 109.50000 418.400000
5601 12689 7655 1 109.50000 418.400000
248 12690 5602 1 109.50000 418.400000
248 12690 5603 1 109.50000 418.400000
248 12690 5604 1 109.50000 418.400000
5602 12690 5603 1 109.50000 418.400000
5602 12690 5604 1 109.50000 418.400000
5603 12690 5604 1 109.50000 418.400000
5605 12691 5606 1 109.50000 418.400000
5605 12691 5607 1 109.50000 418.400000
5605 12691 5608 1 109.50000 418.400000
5606 12691 5607 1 109.50000 418.400000
5606 12691 5608 1 109.50000 418.400000
5607 12691 5608 1 109.50000 418.400000
1514 12692 5609 1 109.50000 418.400000
1514 12692 5610 1 109.50000 418.400000
1514 12692 5611 1 109.50000 418.400000
5609 12692 5610 1 109.50000 418.400000
5609 12692 5611 1 109.50000 418.400000
5610 12692 5611 1 109.50000 418.400000
5063 12693 5612 1 109.50000 418.400000
5063 12693 5613 1 109.50000 418.400000
5063 12693 5614 1 109.50000 418.400000
5612 12693 5613 1 109.50000 418.400000
5612 12693 5614 1 109.50000 418.400000
5613 12693 5614 1 109.50000 418.400000
5570 12694 5615 1 109.50000 418.400000
5570 12694 5616 1 109.50000 418.400000
5570 12694 5617 1 109.50000 418.400000
5615 12694 5616 1 109.50000 418.400000
5615 12694 5617 1 109.50000 418.400000
5616 12694 5617 1 109.50000 418.400000
5618 12695 5619 1 109.50000 418.400000
5618 12695 5620 1 109.50000 418.400000
5618 12695 5621 1 109.50000 418.400000
5619 12695 5620 1 109.50000 418.400000
5619 12695 5621 1 109.50000 418.400000
5620 12695 5621 1 109.50000 418.400000
5622 12696 5623 1 109.50000 418.400000
5622 12696 5624 1 109.50000 418.400000
5622 12696 5625 1 109.50000 418.400000
5623 12696 5624 1 109.50000 418.400000
5623 12696 5625 1 109.50000 418.400000
5624 12696 5625 1 109.50000 418.400000
759 12697 3440 1 109.50000 418.400000
759 12697 3917 1 109.50000 418.400000
759 12697 5626 1 109.50000 418.400000
3440 12697 3917 1 109.50000 418.400000
3440 12697 5626 1 109.50000 418.400000
3917 12697 5626 1 109.50000 418.400000
1793 12698 3733 1 109.50000 418.400000
1793 12698 5627 1 109.50000 418.400000
1793 12698 5628 1 109.50000 418.400000
3733 12698 5627 1 109.50000 418.400000
3733 12698 5628 1 109.50000 418.400000
5627 12698 5628 1 109.50000 418.400000
1448 12699 4596 1 109.50000 418.400000
1448 12699 5629 1 109.50000 418.400000
1448 12699 8855 1 109.50000 418.400000
4596 12699 5629 1 109.50000 418.400000
4596 12699 8855 1 109.50000 418.400000
5629 12699 8855 1 109.50000 418.400000
5631 12700 5633 1 109.50000 418.400000
5631 12700 5634 1 109.50000 418.400000
5631 12700 7674 1 109.50000 418.400000
5633 12700 5634 1 109.50000 418.400000
5633 12700 7674 1 109.50000 418.400000
5634 12700 7674 1 109.50000 418.400000
5635 12701 5636 1 109.50000 418.400000
5635 12701 5637 1 109.50000 418.400000
5635 12701 5638 1 109.50000 418.400000
5636 12701 5637 1 109.50000 418.400000
5636 12701 5638 1 109.50000 418.400000
5637 12701 5638 1 109.50000 418.400000
4764 12702 5639 1 109.50000 418.400000
4764 12702 5640 1 109.50000 418.400000
4764 12702 5641 1 109.50000 418.400000
5639 12702 5640 1 109.50000 418.400000
5639 12702 5641 1 109.50000 418.400000
5640 12702 5641 1 109.50000 418.400000
5642 12703 5643 1 109.50000 418.400000
5642 12703 5644 1 109.50000 418.400000
5642 12703 5645 1 109.50000 418.400000
5643 12703 5644 1 109.50000 418.400000
5643 12703 5645 1 109.50000 418.400000
5644 12703 5645 1 109.50000 418.400000
2210 12704 5646 1 109.50000 418.400000
2210 12704 5647 1 109.50000 418.400000
2210 12704 5648 1 109.50000 418.400000
5646 12704 5647 1 109.50000 418.400000
5646 12704 5648 1 109.50000 418.400000
5647 12704 5648 1 109.50000 418.400000
5649 12705 5650 1 109.50000 418.400000
5649 12705 5651 1 109.50000 418.400000
5649 12705 5652 1 109.50000 418.400000
5650 12705 5651 1 109.50000 418.400000
5650 12705 5652 1 109.50000 418.400000
5651 12705 5652 1 109.50000 418.400000
1837 12706 3842 1 109.50000 418.400000
1837 12706 5654 1 109.50000 418.400000
1837 12706 5655 1 109.50000 418.400000
3842 12706 5654 1 109.50000 418.400000
3842 12706 5655 1 109.50000 418.400000
5654 12706 5655 1 109.50000 418.400000
5656 12707 5657 1 109.50000 418.400000
5656 12707 5658 1 109.50000 418.400000
5656 12707 5659 1 109.50000 418.400000
5657 12707 5658 1 109.50000 418.400000
5657 12707 5659 1 109.50000 418.400000
5658 12707 5659 1 109.50000 418.400000
4787 12708 5661 1 109.50000 418.400000
4787 12708 5662 1 109.50000 418.400000
4787 12708 5663 1 109.50000 418.400000
5661 12708 5662 1 109.50000 418.400000
5661 12708 5663 1 109.50000 418.400000
5662 12708 5663 1 109.50000 418.400000
1816 12709 5664 1 109.50000 418.400000
1816 12709 5665 1 109.50000 418.400000
1816 12709 5666 1 109.50000 418.400000
5664 12709 5665 1 109.50000 418.400000
5664 12709 5666 1 109.50000 418.400000
5665 12709 5666 1 109.50000 418.400000
3091 12710 5667 1 109.50000 418.400000
3091 12710 5668 1 109.50000 418.400000
3091 12710 5669 1 109.50000 418.400000
5667 12710 5668 1 109.50000 418.400000
5667 12710 5669 1 109.50000 418.400000
5668 12710 5669 1 109.50000 418.400000
5670 12711 5671 1 109.50000 418.400000
5670 12711 5672 1 109.50000 418.400000
5670 12711 5673 1 109.50000 418.400000
5671 12711 5672 1 109.50000 418.400000
5671 12711 5673 1 109.50000 418.400000
5672 12711 5673 1 109.50000 418.400000
5674 12712 5675 1 109.50000 418.400000
5674 12712 5676 1 109.50000 418.400000
5674 12712 5677 1 109.50000 418.400000
5675 12712 5676 1 109.50000 418.400000
5675 12712 5677 1 109.50000 418.400000
5676 12712 5677 1 109.50000 418.400000
3103 12713 5678 1 109.50000 418.400000
3103 12713 5679 1 109.50000 418.400000
3103 12713 5680 1 109.50000 418.400000
5678 12713 5679 1 109.50000 418.400000
5678 12713 5680 1 109.50000 418.400000
5679 12713 5680 1 109.50000 418.400000
2882 12714 3828 1 109.50000 418.400000
2882 12714 5681 1 109.50000 418.400000
2882 12714 5682 1 109.50000 418.400000
3828 12714 5681 1 109.50000 418.400000
3828 12714 5682 1 109.50000 418.400000
5681 12714 5682 1 109.50000 418.400000
483 12715 5683 1 109.50000 418.400000
483 12715 5684 1 109.50000 418.400000
483 12715 5685 1 109.50000 418.400000
5683 12715 5684 1 109.50000 418.400000
5683 12715 5685 1 109.50000 418.400000
5684 12715 5685 1 109.50000 418.400000
1903 12716 5686 1 109.50000 418.400000
1903 12716 5687 1 109.50000 418.400000
1903 12716 5688 1 109.50000 418.400000
5686 12716 5687 1 109.50000 418.400000
5686 12716 5688 1 109.50000 418.400000
5687 12716 5688 1 109.50000 418.400000
5205 12717 5521 1 109.50000 418.400000
5205 12717 5689 1 109.50000 418.400000
5205 12717 5690 1 109.50000 418.400000
5521 12717 5689 1 109.50000 418.400000
5521 12717 5690 1 109.50000 418.400000
5689 12717 5690 1 109.50000 418.400000
5396 12718 5691 1 109.50000 418.400000
5396 12718 5692 1 109.50000 418.400000
5396 12718 5693 1 109.50000 418.400000
5691 12718 5692 1 109.50000 418.400000
5691 12718 5693 1 109.50000 418.400000
5692 12718 5693 1 109.50000 418.400000
1928 12719 1931 1 109.50000 418.400000
1928 12719 2350 1 109.50000 418.400000
1928 12719 2352 1 109.50000 418.400000
1931 12719 2350 1 109.50000 418.400000
1931 12719 2352 1 109.50000 418.400000
2350 12719 2352 1 109.50000 418.400000
5696 12720 5697 1 109.50000 418.400000
5696 12720 5698 1 109.50000 418.400000
5696 12720 5699 1 109.50000 418.400000
5697 12720 5698 1 109.50000 418.400000
5697 12720 5699 1 109.50000 418.400000
5698 12720 5699 1 109.50000 418.400000
5317 12721 5700 1 109.50000 418.400000
5317 12721 5701 1 109.50000 418.400000
5317 12721 5702 1 109.50000 418.400000
5700 12721 5701 1 109.50000 418.400000
5700 12721 5702 1 109.50000 418.400000
5701 12721 5702 1 109.50000 418.400000
5214 12722 5703 1 109.50000 418.400000
5214 12722 5704 1 109.50000 418.400000
5214 12722 5705 1 109.50000 418.400000
5703 12722 5704 1 109.50000 418.400000
5703 12722 5705 1 109.50000 418.400000
5704 12722 5705 1 109.50000 418.400000
701 12723 5707 1 109.50000 418.400000
701 12723 5708 1 109.50000 418.400000
701 12723 5844 1 109.50000 418.400000
5707 12723 5708 1 109.50000 418.400000
5707 12723 5844 1 109.50000 418.400000
5708 12723 5844 1 109.50000 418.400000
3253 12724 4928 1 109.50000 418.400000
3253 12724 5709 1 109.50000 418.400000
3253 12724 5710 1 109.50000 418.400000
4928 12724 5709 1 109.50000 418.400000
4928 12724 5710 1 109.50000 418.400000
5709 12724 5710 1 109.50000 418.400000
1399 12725 1539 1 109.50000 418.400000
1399 12725 5711 1 109.50000 418.400000
1399 12725 5712 1 109.50000 418.400000
1539 12725 5711 1 109.50000 418.400000
1539 12725 5712 1 109.50000 418.400000
5711 12725 5712 1 109.50000 418.400000
5718 12726 5719 1 109.50000 418.400000
5718 12726 5720 1 109.50000 418.400000
5718 12726 5721 1 109.50000 418.400000
5719 12726 5720 1 109.50000 418.400000
5719 12726 5721 1 109.50000 418.400000
5720 12726 5721 1 109.50000 418.400000
2011 12727 5722 1 109.50000 418.400000
2011 12727 5723 1 109.50000 418.400000
2011 12727 5724 1 109.50000 418.400000
5722 12727 5723 1 109.50000 418.400000
5722 12727 5724 1 109.50000 418.400000
5723 12727 5724 1 109.50000 418.400000
3045 12728 5728 1 109.50000 418.400000
3045 12728 5729 1 109.50000 418.400000
3045 12728 5730 1 109.50000 418.400000
5728 12728 5729 1 109.50000 418.400000
5728 12728 5730 1 109.50000 418.400000
5729 12728 5730 1 109.50000 418.400000
269 12729 3175 1 109.50000 418.400000
269 12729 5731 1 109.50000 418.400000
269 12729 5732 1 109.50000 418.400000
3175 12729 5731 1 109.50000 418.400000
3175 12729 5732 1 109.50000 418.400000
5731 12729 5732 1 109.50000 418.400000
728 12730 2417 1 109.50000 418.400000
728 12730 5733 1 109.50000 418.400000
728 12730 5734 1 109.50000 418.400000
2417 12730 5733 1 109.50000 418.400000
2417 12730 5734 1 109.50000 418.400000
5733 12730 5734 1 109.50000 418.400000
1496 12731 4013 1 109.50000 418.400000
1496 12731 5735 1 109.50000 418.400000
1496 12731 5736 1 109.50000 418.400000
4013 12731 5735 1 109.50000 418.400000
4013 12731 5736 1 109.50000 418.400000
5735 12731 5736 1 109.50000 418.400000
5738 12732 5739 1 109.50000 418.400000
5738 12732 5740 1 109.50000 418.400000
5738 12732 5741 1 109.50000 418.400000
5739 12732 5740 1 109.50000 418.400000
5739 12732 5741 1 109.50000 418.400000
5740 12732 5741 1 109.50000 418.400000
5742 12733 5743 1 109.50000 418.400000
5742 12733 10471 1 109.50000 418.400000
5742 12733 10843 1 109.50000 418.400000
5743 12733 10471 1 109.50000 418.400000
5743 12733 10843 1 109.50000 418.400000
10471 12733 10843 1 109.50000 418.400000
98 12734 2069 1 109.50000 418.400000
98 12734 5745 1 109.50000 418.400000
98 12734 5746 1 109.50000 418.400000
2069 12734 5745 1 109.50000 418.400000
2069 12734 5746 1 109.50000 418.400000
5745 12734 5746 1 109.50000 418.400000
2114 12735 5384 1 109.50000 418.400000
2114 12735 5747 1 109.50000 418.400000
2114 12735 5748 1 109.50000 418.400000
5384 12735 5747 1 109.50000 418.400000
5384 12735 5748 1 109.50000 418.400000
5747 12735 5748 1 109.50000 418.400000
2251 12736 3619 1 109.50000 418.400000
2251 12736 5749 1 109.50000 418.400000
2251 12736 5750 1 109.50000 418.400000
3619 12736 5749 1 109.50000 418.400000
3619 12736 5750 1 109.50000 418.400000
5749 12736 5750 1 109.50000 418.400000
389 12737 5753 1 109.50000 418.400000
389 12737 5754 1 109.50000 418.400000
389 12737 5755 1 109.50000 418.400000
5753 12737 5754 1 109.50000 418.400000
5753 12737 5755 1 109.50000 418.400000
5754 12737 5755 1 109.50000 418.400000
3267 12738 5756 1 109.50000 418.400000
3267 12738 5757 1 109.50000 418.400000
3267 12738 5758 1 109.50000 418.400000
5756 12738 5757 1 109.50000 418.400000
5756 12738 5758 1 109.50000 418.400000
5757 12738 5758 1 109.50000 418.400000
3171 12739 5759 1 109.50000 418.400000
3171 12739 7528 1 109.50000 418.400000
3171 12739 9740 1 109.50000 418.400000
5759 12739 7528 1 109.50000 418.400000
5759 12739 9740 1 109.50000 418.400000
7528 12739 9740 1 109.50000 418.400000
5761 12740 5762 1 109.50000 418.400000
5761 12740 5763 1 109.50000 418.400000
5761 12740 10075 1 109.50000 418.400000
5762 12740 5763 1 109.50000 418.400000
5762 12740 10075 1 109.50000 418.400000
5763 12740 10075 1 109.50000 418.400000
1983 12741 3789 1 109.50000 418.400000
1983 12741 5765 1 109.50000 418.400000
1983 12741 5766 1 109.50000 418.400000
3789 12741 5765 1 109.50000 418.400000
3789 12741 5766 1 109.50000 418.400000
5765 12741 5766 1 109.50000 418.400000
5767 12742 5768 1 109.50000 418.400000
5767 12742 5769 1 109.50000 418.400000
5767 12742 5770 1 109.50000 418.400000
5768 12742 5769 1 109.50000 418.400000
5768 12742 5770 1 109.50000 418.400000
5769 12742 5770 1 109.50000 418.400000
923 12743 2932 1 109.50000 418.400000
923 12743 4429 1 109.50000 418.400000
923 12743 5771 1 109.50000 418.400000
2932 12743 4429 1 109.50000 418.400000
2932 12743 5771 1 109.50000 418.400000
4429 12743 5771 1 109.50000 418.400000
2802 12744 4638 1 109.50000 418.400000
2802 12744 5772 1 109.50000 418.400000
2802 12744 5773 1 109.50000 418.400000
4638 12744 5772 1 109.50000 418.400000
4638 12744 5773 1 109.50000 418.400000
5772 12744 5773 1 109.50000 418.400000
1747 12745 5777 1 109.50000 418.400000
1747 12745 5778 1 109.50000 418.400000
1747 12745 5779 1 109.50000 418.400000
5777 12745 5778 1 109.50000 418.400000
5777 12745 5779 1 109.50000 418.400000
5778 12745 5779 1 109.50000 418.400000
5677 12746 5780 1 109.50000 418.400000
5677 12746 5781 1 109.50000 418.400000
5677 12746 5782 1 109.50000 418.400000
5780 12746 5781 1 109.50000 418.400000
5780 12746 5782 1 109.50000 418.400000
5781 12746 5782 1 109.50000 418.400000
209 12747 5783 1 109.50000 418.400000
209 12747 5784 1 109.50000 418.400000
209 12747 5785 1 109.50000 418.400000
5783 12747 5784 1 109.50000 418.400000
5783 12747 5785 1 109.50000 418.400000
5784 12747 5785 1 109.50000 418.400000
3172 12748 3246 1 109.50000 418.400000
3172 12748 4829 1 109.50000 418.400000
3172 12748 5786 1 109.50000 418.400000
3246 12748 4829 1 109.50000 418.400000
3246 12748 5786 1 109.50000 418.400000
4829 12748 5786 1 109.50000 418.400000
5787 12749 5788 1 109.50000 418.400000
5787 12749 5789 1 109.50000 418.400000
5787 12749 5790 1 109.50000 418.400000
5788 12749 5789 1 109.50000 418.400000
5788 12749 5790 1 109.50000 418.400000
5789 12749 5790 1 109.50000 418.400000
4449 12750 5792 1 109.50000 418.400000
4449 12750 5793 1 109.50000 418.400000
4449 12750 7194 1 109.50000 418.400000
5792 12750 5793 1 109.50000 418.400000
5792 12750 7194 1 109.50000 418.400000
5793 12750 7194 1 109.50000 418.400000
5795 12751 5796 1 109.50000 418.400000
5795 12751 5797 1 109.50000 418.400000
5795 12751 8314 1 109.50000 418.400000
5796 12751 5797 1 109.50000 418.400000
5796 12751 8314 1 109.50000 418.400000
5797 12751 8314 1 109.50000 418.400000
5798 12752 5799 1 109.50000 418.400000
5798 12752 5800 1 109.50000 418.400000
5798 12752 5801 1 109.50000 418.400000
5799 12752 5800 1 109.50000 418.400000
5799 12752 5801 1 109.50000 418.400000
5800 12752 5801 1 109.50000 418.400000
193 12753 691 1 109.50000 418.400000
193 12753 2842 1 109.50000 418.400000
193 12753 5802 1 109.50000 418.400000
691 12753 2842 1 109.50000 418.400000
691 12753 5802 1 109.50000 418.400000
2842 12753 5802 1 109.50000 418.400000
2480 12754 5803 1 109.50000 418.400000
2480 12754 5804 1 109.50000 418.400000
2480 12754 5805 1 109.50000 418.400000
5803 12754 5804 1 109.50000 418.400000
5803 12754 5805 1 109.50000 418.400000
5804 12754 5805 1 109.50000 418.400000
5806 12755 5807 1 109.50000 418.400000
5806 12755 5808 1 109.50000 418.400000
5806 12755 5809 1 109.50000 418.400000
5807 12755 5808 1 109.50000 418.400000
5807 12755 5809 1 109.50000 418.400000
5808 12755 5809 1 109.50000 418.400000
3520 12756 3877 1 109.50000 418.400000
3520 12756 5810 1 109.50000 418.400000
3520 12756 5811 1 109.50000 418.400000
3877 12756 5810 1 109.50000 418.400000
3877 12756 5811 1 109.50000 418.400000
5810 12756 5811 1 109.50000 418.400000
3593 12757 5812 1 109.50000 418.400000
3593 12757 5813 1 109.50000 418.400000
3593 12757 5814 1 109.50000 418.400000
5812 12757 5813 1 109.50000 418.400000
5812 12757 5814 1 109.50000 418.400000
5813 12757 5814 1 109.50000 418.400000
4670 12758 5815 1 109.50000 418.400000
4670 12758 5816 1 109.50000 418.400000
4670 12758 5817 1 109.50000 418.400000
5815 12758 5816 1 109.50000 418.400000
5815 12758 5817 1 109.50000 418.400000
5816 12758 5817 1 109.50000 418.400000
1852 12759 3074 1 109.50000 418.400000
1852 12759 5818 1 109.50000 418.400000
1852 12759 5819 1 109.50000 418.400000
3074 12759 5818 1 109.50000 418.400000
3074 12759 5819 1 109.50000 418.400000
5818 12759 5819 1 109.50000 418.400000
535 12760 4291 1 109.50000 418.400000
535 12760 5599 1 109.50000 418.400000
535 12760 5821 1 109.50000 418.400000
4291 12760 5599 1 109.50000 418.400000
4291 12760 5821 1 109.50000 418.400000
5599 12760 5821 1 109.50000 418.400000
2793 12761 3802 1 109.50000 418.400000
2793 12761 5822 1 109.50000 418.400000
2793 12761 5823 1 109.50000 418.400000
3802 12761 5822 1 109.50000 418.400000
3802 12761 5823 1 109.50000 418.400000
5822 12761 5823 1 109.50000 418.400000
5825 12762 5826 1 109.50000 418.400000
5825 12762 5827 1 109.50000 418.400000
5825 12762 9839 1 109.50000 418.400000
5826 12762 5827 1 109.50000 418.400000
5826 12762 9839 1 109.50000 418.400000
5827 12762 9839 1 109.50000 418.400000
1910 12763 2840 1 109.50000 418.400000
1910 12763 5777 1 109.50000 418.400000
1910 12763 5831 1 109.50000 418.400000
2840 12763 5777 1 109.50000 418.400000
2840 12763 5831 1 109.50000 418.400000
5777 12763 5831 1 109.50000 418.400000
5835 12764 5836 1 109.50000 418.400000
5835 12764 6820 1 109.50000 418.400000
5835 12764 9421 1 109.50000 418.400000
5836 12764 6820 1 109.50000 418.400000
5836 12764 9421 1 109.50000 418.400000
6820 12764 9421 1 109.50000 418.400000
4368 12765 5706 1 109.50000 418.400000
4368 12765 5708 1 109.50000 418.400000
4368 12765 5843 1 109.50000 418.400000
5706 12765 5708 1 109.50000 418.400000
5706 12765 5843 1 109.50000 418.400000
5708 12765 5843 1 109.50000 418.400000
4107 12766 4108 1 109.50000 418.400000
4107 12766 5845 1 109.50000 418.400000
4107 12766 5846 1 109.50000 418.400000
4108 12766 5845 1 109.50000 418.400000
4108 12766 5846 1 109.50000 418.400000
5845 12766 5846 1 109.50000 418.400000
5637 12767 5847 1 109.50000 418.400000
5637 12767 5848 1 109.50000 418.400000
5637 12767 5849 1 109.50000 418.400000
5847 12767 5848 1 109.50000 418.400000
5847 12767 5849 1 109.50000 418.400000
5848 12767 5849 1 109.50000 418.400000
410 12768 5850 1 109.50000 418.400000
410 12768 5851 1 109.50000 418.400000
410 12768 5852 1 109.50000 418.400000
5850 12768 5851 1 109.50000 418.400000
5850 12768 5852 1 109.50000 418.400000
5851 12768 5852 1 109.50000 418.400000
2611 12769 3586 1 109.50000 418.400000
2611 12769 5346 1 109.50000 418.400000
2611 12769 5853 1 109.50000 418.400000
3586 12769 5346 1 109.50000 418.400000
3586 12769 5853 1 109.50000 418.400000
5346 12769 5853 1 109.50000 418.400000
5854 12770 5855 1 109.50000 418.400000
5854 12770 5856 1 109.50000 418.400000
5854 12770 5857 1 109.50000 418.400000
5855 12770 5856 1 109.50000 418.400000
5855 12770 5857 1 109.50000 418.400000
5856 12770 5857 1 109.50000 418.400000
3444 12771 5062 1 109.50000 418.400000
3444 12771 5858 1 109.50000 418.400000
3444 12771 5859 1 109.50000 418.400000
5062 12771 5858 1 109.50000 418.400000
5062 12771 5859 1 109.50000 418.400000
5858 12771 5859 1 109.50000 418.400000
4834 12772 5862 1 109.50000 418.400000
4834 12772 5864 1 109.50000 418.400000
4834 12772 10290 1 109.50000 418.400000
5862 12772 5864 1 109.50000 418.400000
5862 12772 10290 1 109.50000 418.400000
5864 12772 10290 1 109.50000 418.400000
5865 12773 5866 1 109.50000 418.400000
5865 12773 5867 1 109.50000 418.400000
5865 12773 8664 1 109.50000 418.400000
5866 12773 5867 1 109.50000 418.400000
5866 12773 8664 1 109.50000 418.400000
5867 12773 8664 1 109.50000 418.400000
3851 12774 5283 1 109.50000 418.400000
3851 12774 5868 1 109.50000 418.400000
3851 12774 5869 1 109.50000 418.400000
5283 12774 5868 1 109.50000 418.400000
5283 12774 5869 1 109.50000 418.400000
5868 12774 5869 1 109.50000 418.400000
3005 12775 5870 1 109.50000 418.400000
3005 12775 5871 1 109.50000 418.400000
3005 12775 5872 1 109.50000 418.400000
5870 12775 5871 1 109.50000 418.400000
5870 12775 5872 1 109.50000 418.400000
5871 12775 5872 1 109.50000 418.400000
468 12776 5873 1 109.50000 418.400000
468 12776 5874 1 109.50000 418.400000
468 12776 5875 1 109.50000 418.400000
5873 12776 5874 1 109.50000 418.400000
5873 12776 5875 1 109.50000 418.400000
5874 12776 5875 1 109.50000 418.400000
5876 12777 5877 1 109.50000 418.400000
5876 12777 5878 1 109.50000 418.400000
5876 12777 5879 1 109.50000 418.400000
5877 12777 5878 1 109.50000 418.400000
5877 12777 5879 1 109.50000 418.400000
5878 12777 5879 1 109.50000 418.400000
5880 12778 5881 1 109.50000 418.400000
5880 12778 5882 1 109.50000 418.400000
5880 12778 5883 1 109.50000 418.400000
5881 12778 5882 1 109.50000 418.400000
5881 12778 5883 1 109.50000 418.400000
5882 12778 5883 1 109.50000 418.400000
3153 12779 5884 1 109.50000 418.400000
3153 12779 5885 1 109.50000 418.400000
3153 12779 5886 1 109.50000 418.400000
5884 12779 5885 1 109.50000 418.400000
5884 12779 5886 1 109.50000 418.400000
5885 12779 5886 1 109.50000 418.400000
1761 12780 5217 1 109.50000 418.400000
1761 12780 5887 1 109.50000 418.400000
1761 12780 5888 1 109.50000 418.400000
5217 12780 5887 1 109.50000 418.400000
5217 12780 5888 1 109.50000 418.400000
5887 12780 5888 1 109.50000 418.400000
4806 12781 5889 1 109.50000 418.400000
4806 12781 5890 1 109.50000 418.400000
4806 12781 5891 1 109.50000 418.400000
5889 12781 5890 1 109.50000 418.400000
5889 12781 5891 1 109.50000 418.400000
5890 12781 5891 1 109.50000 418.400000
1884 12782 5895 1 109.50000 418.400000
1884 12782 5896 1 109.50000 418.400000
1884 12782 5897 1 109.50000 418.400000
5895 12782 5896 1 109.50000 418.400000
5895 12782 5897 1 109.50000 418.400000
5896 12782 5897 1 109.50000 418.400000
1581 12783 5898 1 109.50000 418.400000
1581 12783 5899 1 109.50000 418.400000
1581 12783 5900 1 109.50000 418.400000
5898 12783 5899 1 109.50000 418.400000
5898 12783 5900 1 109.50000 418.400000
5899 12783 5900 1 109.50000 418.400000
3051 12784 5901 1 109.50000 418.400000
3051 12784 5902 1 109.50000 418.400000
3051 12784 5903 1 109.50000 418.400000
5901 12784 5902 1 109.50000 418.400000
5901 12784 5903 1 109.50000 418.400000
5902 12784 5903 1 109.50000 418.400000
5904 12785 5905 1 109.50000 418.400000
5904 12785 5906 1 109.50000 418.400000
5904 12785 5907 1 109.50000 418.400000
5905 12785 5906 1 109.50000 418.400000
5905 12785 5907 1 109.50000 418.400000
5906 12785 5907 1 109.50000 418.400000
3216 12786 5908 1 109.50000 418.400000
3216 12786 5909 1 109.50000 418.400000
3216 12786 5910 1 109.50000 418.400000
5908 12786 5909 1 109.50000 418.400000
5908 12786 5910 1 109.50000 418.400000
5909 12786 5910 1 109.50000 418.400000
3233 12787 5911 1 109.50000 418.400000
3233 12787 5912 1 109.50000 418.400000
3233 12787 5913 1 109.50000 418.400000
5911 12787 5912 1 109.50000 418.400000
5911 12787 5913 1 109.50000 418.400000
5912 12787 5913 1 109.50000 418.400000
1705 12788 5914 1 109.50000 418.400000
1705 12788 5915 1 109.50000 418.400000
1705 12788 5916 1 109.50000 418.400000
5914 12788 5915 1 109.50000 418.400000
5914 12788 5916 1 109.50000 418.400000
5915 12788 5916 1 109.50000 418.400000
1959 12789 3363 1 109.50000 418.400000
1959 12789 5917 1 109.50000 418.400000
1959 12789 5918 1 109.50000 418.400000
3363 12789 5917 1 109.50000 418.400000
3363 12789 5918 1 109.50000 418.400000
5917 12789 5918 1 109.50000 418.400000
2749 12790 5920 1 109.50000 418.400000
2749 12790 5921 1 109.50000 418.400000
2749 12790 5922 1 109.50000 418.400000
5920 12790 5921 1 109.50000 418.400000
5920 12790 5922 1 109.50000 418.400000
5921 12790 5922 1 109.50000 418.400000
762 12791 5923 1 109.50000 418.400000
762 12791 5924 1 109.50000 418.400000
762 12791 5925 1 109.50000 418.400000
5923 12791 5924 1 109.50000 418.400000
5923 12791 5925 1 109.50000 418.400000
5924 12791 5925 1 109.50000 418.400000
1862 12792 3414 1 109.50000 418.400000
1862 12792 3415 1 109.50000 418.400000
1862 12792 5926 1 109.50000 418.400000
3414 12792 3415 1 109.50000 418.400000
3414 12792 5926 1 109.50000 418.400000
3415 12792 5926 1 109.50000 418.400000
4457 12793 5469 1 109.50000 418.400000
4457 12793 5928 1 109.50000 418.400000
4457 12793 5929 1 109.50000 418.400000
5469 12793 5928 1 109.50000 418.400000
5469 12793 5929 1 109.50000 418.400000
5928 12793 5929 1 109.50000 418.400000
5930 12794 5931 1 109.50000 418.400000
5930 12794 5932 1 109.50000 418.400000
5930 12794 5933 1 109.50000 418.400000
5931 12794 5932 1 109.50000 418.400000
5931 12794 5933 1 109.50000 418.400000
5932 12794 5933 1 109.50000 418.400000
2263 12795 3255 1 109.50000 418.400000
2263 12795 5395 1 109.50000 418.400000
2263 12795 5934 1 109.50000 418.400000
3255 12795 5395 1 109.50000 418.400000
3255 12795 5934 1 109.50000 418.400000
5395 12795 5934 1 109.50000 418.400000
1189 12796 1192 1 109.50000 418.400000
1189 12796 5935 1 109.50000 418.400000
1189 12796 5936 1 109.50000 418.400000
1192 12796 5935 1 109.50000 418.400000
1192 12796 5936 1 109.50000 418.400000
5935 12796 5936 1 109.50000 418.400000
4312 12797 4492 1 109.50000 418.400000
4312 12797 5937 1 109.50000 418.400000
4312 12797 5938 1 109.50000 418.400000
4492 12797 5937 1 109.50000 418.400000
4492 12797 5938 1 109.50000 418.400000
5937 12797 5938 1 109.50000 418.400000
5939 12798 5940 1 109.50000 418.400000
5939 12798 5941 1 109.50000 418.400000
5939 12798 5942 1 109.50000 418.400000
5940 12798 5941 1 109.50000 418.400000
5940 12798 5942 1 109.50000 418.400000
5941 12798 5942 1 109.50000 418.400000
5743 12799 5945 1 109.50000 418.400000
5743 12799 9887 1 109.50000 418.400000
5743 12799 9889 1 109.50000 418.400000
5945 12799 9887 1 109.50000 418.400000
5945 12799 9889 1 109.50000 418.400000
9887 12799 9889 1 109.50000 418.400000
2385 12800 5946 1 109.50000 418.400000
2385 12800 5947 1 109.50000 418.400000
2385 12800 5948 1 109.50000 418.400000
5946 12800 5947 1 109.50000 418.400000
5946 12800 5948 1 109.50000 418.400000
5947 12800 5948 1 109.50000 418.400000
5949 12801 5950 1 109.50000 418.400000
5949 12801 5951 1 109.50000 418.400000
5949 12801 5952 1 109.50000 418.400000
5950 12801 5951 1 109.50000 418.400000
5950 12801 5952 1 109.50000 418.400000
5951 12801 5952 1 109.50000 418.400000
5953 12802 5954 1 109.50000 418.400000
5953 12802 5955 1 109.50000 418.400000
5953 12802 5956 1 109.50000 418.400000
5954 12802 5955 1 109.50000 418.400000
5954 12802 5956 1 109.50000 418.400000
5955 12802 5956 1 109.50000 418.400000
5957 12803 5958 1 109.50000 418.400000
5957 12803 5959 1 109.50000 418.400000
5957 12803 5960 1 109.50000 418.400000
5958 12803 5959 1 109.50000 418.400000
5958 12803 5960 1 109.50000 418.400000
5959 12803 5960 1 109.50000 418.400000
800 12804 4888 1 109.50000 418.400000
800 12804 5961 1 109.50000 418.400000
800 12804 5962 1 109.50000 418.400000
4888 12804 5961 1 109.50000 418.400000
4888 12804 5962 1 109.50000 418.400000
5961 12804 5962 1 109.50000 418.400000
1820 12805 1955 1 109.50000 418.400000
1820 12805 5966 1 109.50000 418.400000
1820 12805 5967 1 109.50000 418.400000
1955 12805 5966 1 109.50000 418.400000
1955 12805 5967 1 109.50000 418.400000
5966 12805 5967 1 109.50000 418.400000
1881 12806 2586 1 109.50000 418.400000
1881 12806 5968 1 109.50000 418.400000
1881 12806 5969 1 109.50000 418.400000
2586 12806 5968 1 109.50000 418.400000
2586 12806 5969 1 109.50000 418.400000
5968 12806 5969 1 109.50000 418.400000
5018 12807 5970 1 109.50000 418.400000
5018 12807 5971 1 109.50000 418.400000
5018 12807 5972 1 109.50000 418.400000
5970 12807 5971 1 109.50000 418.400000
5970 12807 5972 1 109.50000 418.400000
5971 12807 5972 1 109.50000 418.400000
1624 12808 5976 1 109.50000 418.400000
1624 12808 5977 1 109.50000 418.400000
1624 12808 7670 1 109.50000 418.400000
5976 12808 5977 1 109.50000 418.400000
5976 12808 7670 1 109.50000 418.400000
5977 12808 7670 1 109.50000 418.400000
2012 12809 3940 1 109.50000 418.400000
2012 12809 5982 1 109.50000 418.400000
2012 12809 5983 1 109.50000 418.400000
3940 12809 5982 1 109.50000 418.400000
3940 12809 5983 1 109.50000 418.400000
5982 12809 5983 1 109.50000 418.400000
5814 12810 5984 1 109.50000 418.400000
5814 12810 5985 1 109.50000 418.400000
5814 12810 5986 1 109.50000 418.400000
5984 12810 5985 1 109.50000 418.400000
5984 12810 5986 1 109.50000 418.400000
5985 12810 5986 1 109.50000 418.400000
3747 12811 4947 1 109.50000 418.400000
3747 12811 5987 1 109.50000 418.400000
3747 12811 5988 1 109.50000 418.400000
4947 12811 5987 1 109.50000 418.400000
4947 12811 5988 1 109.50000 418.400000
5987 12811 5988 1 109.50000 418.400000
3872 12812 4464 1 109.50000 418.400000
3872 12812 5989 1 109.50000 418.400000
3872 12812 5990 1 109.50000 418.400000
4464 12812 5989 1 109.50000 418.400000
4464 12812 5990 1 109.50000 418.400000
5989 12812 5990 1 109.50000 418.400000
5993 12813 5994 1 109.50000 418.400000
5993 12813 5995 1 109.50000 418.400000
5993 12813 5996 1 109.50000 418.400000
5994 12813 5995 1 109.50000 418.400000
5994 12813 5996 1 109.50000 418.400000
5995 12813 5996 1 109.50000 418.400000
555 12814 1228 1 109.50000 418.400000
555 12814 4653 1 109.50000 418.400000
555 12814 5999 1 109.50000 418.400000
1228 12814 4653 1 109.50000 418.400000
1228 12814 5999 1 109.50000 418.400000
4653 12814 5999 1 109.50000 418.400000
2207 12815 6002 1 109.50000 418.400000
2207 12815 6003 1 109.50000 418.400000
2207 12815 6004 1 109.50000 418.400000
6002 12815 6003 1 109.50000 418.400000
6002 12815 6004 1 109.50000 418.400000
6003 12815 6004 1 109.50000 418.400000
6007 12816 6008 1 109.50000 418.400000
6007 12816 6009 1 109.50000 418.400000
6007 12816 6010 1 109.50000 418.400000
6008 12816 6009 1 109.50000 418.400000
6008 12816 6010 1 109.50000 418.400000
6009 12816 6010 1 109.50000 418.400000
406 12817 2903 1 109.50000 418.400000
406 12817 6011 1 109.50000 418.400000
406 12817 6012 1 109.50000 418.400000
2903 12817 6011 1 109.50000 418.400000
2903 12817 6012 1 109.50000 418.400000
6011 12817 6012 1 109.50000 418.400000
222 12818 6013 1 109.50000 418.400000
222 12818 6014 1 109.50000 418.400000
222 12818 6015 1 109.50000 418.400000
6013 12818 6014 1 109.50000 418.400000
6013 12818 6015 1 109.50000 418.400000
6014 12818 6015 1 109.50000 418.400000
6016 12819 6017 1 109.50000 418.400000
6016 12819 6018 1 109.50000 418.400000
6016 12819 6019 1 109.50000 418.400000
6017 12819 6018 1 109.50000 418.400000
6017 12819 6019 1 109.50000 418.400000
6018 12819 6019 1 109.50000 418.400000
1160 12820 1162 1 109.50000 418.400000
1160 12820 1163 1 109.50000 418.400000
1160 12820 5112 1 109.50000 418.400000
1162 12820 1163 1 109.50000 418.400000
1162 12820 5112 1 109.50000 418.400000
1163 12820 5112 1 109.50000 418.400000
6022 12821 6023 1 109.50000 418.400000
6022 12821 6024 1 109.50000 418.400000
6022 12821 6025 1 109.50000 418.400000
6023 12821 6024 1 109.50000 418.400000
6023 12821 6025 1 109.50000 418.400000
6024 12821 6025 1 109.50000 418.400000
4590 12822 6028 1 109.50000 418.400000
4590 12822 6029 1 109.50000 418.400000
4590 12822 6030 1 109.50000 418.400000
6028 12822 6029 1 109.50000 418.400000
6028 12822 6030 1 109.50000 418.400000
6029 12822 6030 1 109.50000 418.400000
1584 12823 4663 1 109.50000 418.400000
1584 12823 6033 1 109.50000 418.400000
1584 12823 6034 1 109.50000 418.400000
4663 12823 6033 1 109.50000 418.400000
4663 12823 6034 1 109.50000 418.400000
6033 12823 6034 1 109.50000 418.400000
761 12824 6035 1 109.50000 418.400000
761 12824 6036 1 109.50000 418.400000
761 12824 6037 1 109.50000 418.400000
6035 12824 6036 1 109.50000 418.400000
6035 12824 6037 1 109.50000 418.400000
6036 12824 6037 1 109.50000 418.400000
6039 12825 6040 1 109.50000 418.400000
6039 12825 6041 1 109.50000 418.400000
6039 12825 6042 1 109.50000 418.400000
6040 12825 6041 1 109.50000 418.400000
6040 12825 6042 1 109.50000 418.400000
6041 12825 6042 1 109.50000 418.400000
6043 12826 6044 1 109.50000 418.400000
6043 12826 6045 1 109.50000 418.400000
6043 12826 6046 1 109.50000 418.400000
6044 12826 6045 1 109.50000 418.400000
6044 12826 6046 1 109.50000 418.400000
6045 12826 6046 1 109.50000 418.400000
2394 12827 6047 1 109.50000 418.400000
2394 12827 6048 1 109.50000 418.400000
2394 12827 6049 1 109.50000 418.400000
6047 12827 6048 1 109.50000 418.400000
6047 12827 6049 1 109.50000 418.400000
6048 12827 6049 1 109.50000 418.400000
2145 12828 4687 1 109.50000 418.400000
2145 12828 4715 1 109.50000 418.400000
2145 12828 6050 1 109.50000 418.400000
4687 12828 4715 1 109.50000 418.400000
4687 12828 6050 1 109.50000 418.400000
4715 12828 6050 1 109.50000 418.400000
287 12829 6052 1 109.50000 418.400000
287 12829 6053 1 109.50000 418.400000
287 12829 6054 1 109.50000 418.400000
6052 12829 6053 1 109.50000 418.400000
6052 12829 6054 1 109.50000 418.400000
6053 12829 6054 1 109.50000 418.400000
6055 12830 6056 1 109.50000 418.400000
6055 12830 6057 1 109.50000 418.400000
6055 12830 10055 1 109.50000 418.400000
6056 12830 6057 1 109.50000 418.400000
6056 12830 10055 1 109.50000 418.400000
6057 12830 10055 1 109.50000 418.400000
1088 12831 6058 1 109.50000 418.400000
1088 12831 6059 1 109.50000 418.400000
1088 12831 6060 1 109.50000 418.400000
6058 12831 6059 1 109.50000 418.400000
6058 12831 6060 1 109.50000 418.400000
6059 12831 6060 1 109.50000 418.400000
2979 12832 3790 1 109.50000 418.400000
2979 12832 4466 1 109.50000 418.400000
2979 12832 6061 1 109.50000 418.400000
3790 12832 4466 1 109.50000 418.400000
3790 12832 6061 1 109.50000 418.400000
4466 12832 6061 1 109.50000 418.400000
2141 12833 6062 1 109.50000 418.400000
2141 12833 6063 1 109.50000 418.400000
2141 12833 6064 1 109.50000 418.400000
6062 12833 6063 1 109.50000 418.400000
6062 12833 6064 1 109.50000 418.400000
6063 12833 6064 1 109.50000 418.400000
4627 12834 6065 1 109.50000 418.400000
4627 12834 6066 1 109.50000 418.400000
4627 12834 6067 1 109.50000 418.400000
6065 12834 6066 1 109.50000 418.400000
6065 12834 6067 1 109.50000 418.400000
6066 12834 6067 1 109.50000 418.400000
213 12835 214 1 109.50000 418.400000
213 12835 6068 1 109.50000 418.400000
213 12835 6069 1 109.50000 418.400000
214 12835 6068 1 109.50000 418.400000
214 12835 6069 1 109.50000 418.400000
6068 12835 6069 1 109.50000 418.400000
6070 12836 6071 1 109.50000 418.400000
6070 12836 6072 1 109.50000 418.400000
6070 12836 6073 1 109.50000 418.400000
6071 12836 6072 1 109.50000 418.400000
6071 12836 6073 1 109.50000 418.400000
6072 12836 6073 1 109.50000 418.400000
2000 12837 2631 1 109.50000 418.400000
2000 12837 6074 1 109.50000 418.400000
2000 12837 6075 1 109.50000 418.400000
2631 12837 6074 1 109.50000 418.400000
2631 12837 6075 1 109.50000 418.400000
6074 12837 6075 1 109.50000 418.400000
284 12838 6076 1 109.50000 418.400000
284 12838 6077 1 109.50000 418.400000
284 12838 6078 1 109.50000 418.400000
6076 12838 6077 1 109.50000 418.400000
6076 12838 6078 1 109.50000 418.400000
6077 12838 6078 1 109.50000 418.400000
5595 12839 6081 1 109.50000 418.400000
5595 12839 6082 1 109.50000 418.400000
5595 12839 6083 1 109.50000 418.400000
6081 12839 6082 1 109.50000 418.400000
6081 12839 6083 1 109.50000 418.400000
6082 12839 6083 1 109.50000 418.400000
6084 12840 6085 1 109.50000 418.400000
6084 12840 6086 1 109.50000 418.400000
6084 12840 6087 1 109.50000 418.400000
6085 12840 6086 1 109.50000 418.400000
6085 12840 6087 1 109.50000 418.400000
6086 12840 6087 1 109.50000 418.400000
6090 12841 6091 1 109.50000 418.400000
6090 12841 6092 1 109.50000 418.400000
6090 12841 6093 1 109.50000 418.400000
6091 12841 6092 1 109.50000 418.400000
6091 12841 6093 1 109.50000 418.400000
6092 12841 6093 1 109.50000 418.400000
1100 12842 6094 1 109.50000 418.400000
1100 12842 6095 1 109.50000 418.400000
1100 12842 6096 1 109.50000 418.400000
6094 12842 6095 1 109.50000 418.400000
6094 12842 6096 1 109.50000 418.400000
6095 12842 6096 1 109.50000 418.400000
2090 12843 3389 1 109.50000 418.400000
2090 12843 6097 1 109.50000 418.400000
2090 12843 6098 1 109.50000 418.400000
3389 12843 6097 1 109.50000 418.400000
3389 12843 6098 1 109.50000 418.400000
6097 12843 6098 1 109.50000 418.400000
4941 12844 6004 1 109.50000 418.400000
4941 12844 6102 1 109.50000 418.400000
4941 12844 6103 1 109.50000 418.400000
6004 12844 6102 1 109.50000 418.400000
6004 12844 6103 1 109.50000 418.400000
6102 12844 6103 1 109.50000 418.400000
6104 12845 6105 1 109.50000 418.400000
6104 12845 6106 1 109.50000 418.400000
6104 12845 6107 1 109.50000 418.400000
6105 12845 6106 1 109.50000 418.400000
6105 12845 6107 1 109.50000 418.400000
6106 12845 6107 1 109.50000 418.400000
4845 12846 6111 1 109.50000 418.400000
4845 12846 6113 1 109.50000 418.400000
4845 12846 10052 1 109.50000 418.400000
6111 12846 6113 1 109.50000 418.400000
6111 12846 10052 1 109.50000 418.400000
6113 12846 10052 1 109.50000 418.400000
2212 12847 3708 1 109.50000 418.400000
2212 12847 3709 1 109.50000 418.400000
2212 12847 6115 1 109.50000 418.400000
3708 12847 3709 1 109.50000 418.400000
3708 12847 6115 1 109.50000 418.400000
3709 12847 6115 1 109.50000 418.400000
2809 12848 4094 1 109.50000 418.400000
2809 12848 4253 1 109.50000 418.400000
2809 12848 6118 1 109.50000 418.400000
4094 12848 4253 1 109.50000 418.400000
4094 12848 6118 1 109.50000 418.400000
4253 12848 6118 1 109.50000 418.400000
307 12849 6119 1 109.50000 418.400000
307 12849 6120 1 109.50000 418.400000
307 12849 6121 1 109.50000 418.400000
6119 12849 6120 1 109.50000 418.400000
6119 12849 6121 1 109.50000 418.400000
6120 12849 6121 1 109.50000 418.400000
6124 12850 6125 1 109.50000 418.400000
6124 12850 6126 1 109.50000 418.400000
6124 12850 6127 1 109.50000 418.400000
6125 12850 6126 1 109.50000 418.400000
6125 12850 6127 1 109.50000 418.400000
6126 12850 6127 1 109.50000 418.400000
2358 12851 3142 1 109.50000 418.400000
2358 12851 3265 1 109.50000 418.400000
2358 12851 6128 1 109.50000 418.400000
3142 12851 3265 1 109.50000 418.400000
3142 12851 6128 1 109.50000 418.400000
3265 12851 6128 1 109.50000 418.400000
1038 12852 6129 1 109.50000 418.400000
1038 12852 6130 1 109.50000 418.400000
1038 12852 6131 1 109.50000 418.400000
6129 12852 6130 1 109.50000 418.400000
6129 12852 6131 1 109.50000 418.400000
6130 12852 6131 1 109.50000 418.400000
6132 12853 6133 1 109.50000 418.400000
6132 12853 6134 1 109.50000 418.400000
6132 12853 7283 1 109.50000 418.400000
6133 12853 6134 1 109.50000 418.400000
6133 12853 7283 1 109.50000 418.400000
6134 12853 7283 1 109.50000 418.400000
2147 12854 3328 1 109.50000 418.400000
2147 12854 6132 1 109.50000 418.400000
2147 12854 6136 1 109.50000 418.400000
3328 12854 6132 1 109.50000 418.400000
3328 12854 6136 1 109.50000 418.400000
6132 12854 6136 1 109.50000 418.400000
6137 12855 6138 1 109.50000 418.400000
6137 12855 6139 1 109.50000 418.400000
6137 12855 6140 1 109.50000 418.400000
6138 12855 6139 1 109.50000 418.400000
6138 12855 6140 1 109.50000 418.400000
6139 12855 6140 1 109.50000 418.400000
5532 12856 6141 1 109.50000 418.400000
5532 12856 6142 1 109.50000 418.400000
5532 12856 6143 1 109.50000 418.400000
6141 12856 6142 1 109.50000 418.400000
6141 12856 6143 1 109.50000 418.400000
6142 12856 6143 1 109.50000 418.400000
2049 12857 2248 1 109.50000 418.400000
2049 12857 2896 1 109.50000 418.400000
2049 12857 6144 1 109.50000 418.400000
2248 12857 2896 1 109.50000 418.400000
2248 12857 6144 1 109.50000 418.400000
2896 12857 6144 1 109.50000 418.400000
3996 12858 4443 1 109.50000 418.400000
3996 12858 6146 1 109.50000 418.400000
3996 12858 6321 1 109.50000 418.400000
4443 12858 6146 1 109.50000 418.400000
4443 12858 6321 1 109.50000 418.400000
6146 12858 6321 1 109.50000 418.400000
6150 12859 6151 1 109.50000 418.400000
6150 12859 6152 1 109.50000 418.400000
6150 12859 6153 1 109.50000 418.400000
6151 12859 6152 1 109.50000 418.400000
6151 12859 6153 1 109.50000 418.400000
6152 12859 6153 1 109.50000 418.400000
3973 12860 4286 1 109.50000 418.400000
3973 12860 5665 1 109.50000 418.400000
3973 12860 6154 1 109.50000 418.400000
4286 12860 5665 1 109.50000 418.400000
4286 12860 6154 1 109.50000 418.400000
5665 12860 6154 1 109.50000 418.400000
1093 12861 6155 1 109.50000 418.400000
1093 12861 6156 1 109.50000 418.400000
1093 12861 6157 1 109.50000 418.400000
6155 12861 6156 1 109.50000 418.400000
6155 12861 6157 1 109.50000 418.400000
6156 12861 6157 1 109.50000 418.400000
2983 12862 3693 1 109.50000 418.400000
2983 12862 6158 1 109.50000 418.400000
2983 12862 6159 1 109.50000 418.400000
3693 12862 6158 1 109.50000 418.400000
3693 12862 6159 1 109.50000 418.400000
6158 12862 6159 1 109.50000 418.400000
4746 12863 4801 1 109.50000 418.400000
4746 12863 4802 1 109.50000 418.400000
4746 12863 6160 1 109.50000 418.400000
4801 12863 4802 1 109.50000 418.400000
4801 12863 6160 1 109.50000 418.400000
4802 12863 6160 1 109.50000 418.400000
5464 12864 5466 1 109.50000 418.400000
5464 12864 6165 1 109.50000 418.400000
5464 12864 6166 1 109.50000 418.400000
5466 12864 6165 1 109.50000 418.400000
5466 12864 6166 1 109.50000 418.400000
6165 12864 6166 1 109.50000 418.400000
6168 12865 6169 1 109.50000 418.400000
6168 12865 6170 1 109.50000 418.400000
6168 12865 8848 1 109.50000 418.400000
6169 12865 6170 1 109.50000 418.400000
6169 12865 8848 1 109.50000 418.400000
6170 12865 8848 1 109.50000 418.400000
4293 12866 5672 1 109.50000 418.400000
4293 12866 6171 1 109.50000 418.400000
4293 12866 6172 1 109.50000 418.400000
5672 12866 6171 1 109.50000 418.400000
5672 12866 6172 1 109.50000 418.400000
6171 12866 6172 1 109.50000 418.400000
592 12867 4685 1 109.50000 418.400000
592 12867 6176 1 109.50000 418.400000
592 12867 6177 1 109.50000 418.400000
4685 12867 6176 1 109.50000 418.400000
4685 12867 6177 1 109.50000 418.400000
6176 12867 6177 1 109.50000 418.400000
437 12868 3324 1 109.50000 418.400000
437 12868 6179 1 109.50000 418.400000
437 12868 6180 1 109.50000 418.400000
3324 12868 6179 1 109.50000 418.400000
3324 12868 6180 1 109.50000 418.400000
6179 12868 6180 1 109.50000 418.400000
6181 12869 6182 1 109.50000 418.400000
6181 12869 6183 1 109.50000 418.400000
6181 12869 6184 1 109.50000 418.400000
6182 12869 6183 1 109.50000 418.400000
6182 12869 6184 1 109.50000 418.400000
6183 12869 6184 1 109.50000 418.400000
4111 12870 6185 1 109.50000 418.400000
4111 12870 6186 1 109.50000 418.400000
4111 12870 6187 1 109.50000 418.400000
6185 12870 6186 1 109.50000 418.400000
6185 12870 6187 1 109.50000 418.400000
6186 12870 6187 1 109.50000 418.400000
6188 12871 6189 1 109.50000 418.400000
6188 12871 6190 1 109.50000 418.400000
6188 12871 6191 1 109.50000 418.400000
6189 12871 6190 1 109.50000 418.400000
6189 12871 6191 1 109.50000 418.400000
6190 12871 6191 1 109.50000 418.400000
6193 12872 6194 1 109.50000 418.400000
6193 12872 6195 1 109.50000 418.400000
6193 12872 6196 1 109.50000 418.400000
6194 12872 6195 1 109.50000 418.400000
6194 12872 6196 1 109.50000 418.400000
6195 12872 6196 1 109.50000 418.400000
1718 12873 6200 1 109.50000 418.400000
1718 12873 6201 1 109.50000 418.400000
1718 12873 6202 1 109.50000 418.400000
6200 12873 6201 1 109.50000 418.400000
6200 12873 6202 1 109.50000 418.400000
6201 12873 6202 1 109.50000 418.400000
4499 12874 5159 1 109.50000 418.400000
4499 12874 6203 1 109.50000 418.400000
4499 12874 6204 1 109.50000 418.400000
5159 12874 6203 1 109.50000 418.400000
5159 12874 6204 1 109.50000 418.400000
6203 12874 6204 1 109.50000 418.400000
2712 12875 6205 1 109.50000 418.400000
2712 12875 6206 1 109.50000 418.400000
2712 12875 6207 1 109.50000 418.400000
6205 12875 6206 1 109.50000 418.400000
6205 12875 6207 1 109.50000 418.400000
6206 12875 6207 1 109.50000 418.400000
1101 12876 3236 1 109.50000 418.400000
1101 12876 6208 1 109.50000 418.400000
1101 12876 6209 1 109.50000 418.400000
3236 12876 6208 1 109.50000 418.400000
3236 12876 6209 1 109.50000 418.400000
6208 12876 6209 1 109.50000 418.400000
6210 12877 6211 1 109.50000 418.400000
6210 12877 6212 1 109.50000 418.400000
6210 12877 6213 1 109.50000 418.400000
6211 12877 6212 1 109.50000 418.400000
6211 12877 6213 1 109.50000 418.400000
6212 12877 6213 1 109.50000 418.400000
939 12878 4632 1 109.50000 418.400000
939 12878 6120 1 109.50000 418.400000
939 12878 6214 1 109.50000 418.400000
4632 12878 6120 1 109.50000 418.400000
4632 12878 6214 1 109.50000 418.400000
6120 12878 6214 1 109.50000 418.400000
3672 12879 6215 1 109.50000 418.400000
3672 12879 6216 1 109.50000 418.400000
3672 12879 6217 1 109.50000 418.400000
6215 12879 6216 1 109.50000 418.400000
6215 12879 6217 1 109.50000 418.400000
6216 12879 6217 1 109.50000 418.400000
473 12880 3491 1 109.50000 418.400000
473 12880 6218 1 109.50000 418.400000
473 12880 6219 1 109.50000 418.400000
3491 12880 6218 1 109.50000 418.400000
3491 12880 6219 1 109.50000 418.400000
6218 12880 6219 1 109.50000 418.400000
392 12881 5556 1 109.50000 418.400000
392 12881 6136 1 109.50000 418.400000
392 12881 6220 1 109.50000 418.400000
5556 12881 6136 1 109.50000 418.400000
5556 12881 6220 1 109.50000 418.400000
6136 12881 6220 1 109.50000 418.400000
2054 12882 2758 1 109.50000 418.400000
2054 12882 6221 1 109.50000 418.400000
2054 12882 6222 1 109.50000 418.400000
2758 12882 6221 1 109.50000 418.400000
2758 12882 6222 1 109.50000 418.400000
6221 12882 6222 1 109.50000 418.400000
449 12883 6223 1 109.50000 418.400000
449 12883 6224 1 109.50000 418.400000
449 12883 6225 1 109.50000 418.400000
6223 12883 6224 1 109.50000 418.400000
6223 12883 6225 1 109.50000 418.400000
6224 12883 6225 1 109.50000 418.400000
1091 12884 6226 1 109.50000 418.400000
1091 12884 6227 1 109.50000 418.400000
1091 12884 6228 1 109.50000 418.400000
6226 12884 6227 1 109.50000 418.400000
6226 12884 6228 1 109.50000 418.400000
6227 12884 6228 1 109.50000 418.400000
1121 12885 4211 1 109.50000 418.400000
1121 12885 6013 1 109.50000 418.400000
1121 12885 6235 1 109.50000 418.400000
4211 12885 6013 1 109.50000 418.400000
4211 12885 6235 1 109.50000 418.400000
6013 12885 6235 1 109.50000 418.400000
1232 12886 6236 1 109.50000 418.400000
1232 12886 6237 1 109.50000 418.400000
1232 12886 6238 1 109.50000 418.400000
6236 12886 6237 1 109.50000 418.400000
6236 12886 6238 1 109.50000 418.400000
6237 12886 6238 1 109.50000 418.400000
6239 12887 6240 1 109.50000 418.400000
6239 12887 6241 1 109.50000 418.400000
6239 12887 6242 1 109.50000 418.400000
6240 12887 6241 1 109.50000 418.400000
6240 12887 6242 1 109.50000 418.400000
6241 12887 6242 1 109.50000 418.400000
1891 12888 4578 1 109.50000 418.400000
1891 12888 6243 1 109.50000 418.400000
1891 12888 6244 1 109.50000 418.400000
4578 12888 6243 1 109.50000 418.400000
4578 12888 6244 1 109.50000 418.400000
6243 12888 6244 1 109.50000 418.400000
2307 12889 3952 1 109.50000 418.400000
2307 12889 6245 1 109.50000 418.400000
2307 12889 11040 1 109.50000 418.400000
3952 12889 6245 1 109.50000 418.400000
3952 12889 11040 1 109.50000 418.400000
6245 12889 11040 1 109.50000 418.400000
413 12890 2897 1 109.50000 418.400000
413 12890 6246 1 109.50000 418.400000
413 12890 6247 1 109.50000 418.400000
2897 12890 6246 1 109.50000 418.400000
2897 12890 6247 1 109.50000 418.400000
6246 12890 6247 1 109.50000 418.400000
850 12891 6248 1 109.50000 418.400000
850 12891 6249 1 109.50000 418.400000
850 12891 6250 1 109.50000 418.400000
6248 12891 6249 1 109.50000 418.400000
6248 12891 6250 1 109.50000 418.400000
6249 12891 6250 1 109.50000 418.400000
3587 12892 3588 1 109.50000 418.400000
3587 12892 4775 1 109.50000 418.400000
3587 12892 6251 1 109.50000 418.400000
3588 12892 4775 1 109.50000 418.400000
3588 12892 6251 1 109.50000 418.400000
4775 12892 6251 1 109.50000 418.400000
878 12893 6252 1 109.50000 418.400000
878 12893 6253 1 109.50000 418.400000
878 12893 6254 1 109.50000 418.400000
6252 12893 6253 1 109.50000 418.400000
6252 12893 6254 1 109.50000 418.400000
6253 12893 6254 1 109.50000 418.400000
6255 12894 6257 1 109.50000 418.400000
6255 12894 6258 1 109.50000 418.400000
6255 12894 8022 1 109.50000 418.400000
6257 12894 6258 1 109.50000 418.400000
6257 12894 8022 1 109.50000 418.400000
6258 12894 8022 1 109.50000 418.400000
4441 12895 6259 1 109.50000 418.400000
4441 12895 6260 1 109.50000 418.400000
4441 12895 6261 1 109.50000 418.400000
6259 12895 6260 1 109.50000 418.400000
6259 12895 6261 1 109.50000 418.400000
6260 12895 6261 1 109.50000 418.400000
2327 12896 2964 1 109.50000 418.400000
2327 12896 6265 1 109.50000 418.400000
2327 12896 11215 1 109.50000 418.400000
2964 12896 6265 1 109.50000 418.400000
2964 12896 11215 1 109.50000 418.400000
6265 12896 11215 1 109.50000 418.400000
371 12897 372 1 109.50000 418.400000
371 12897 373 1 109.50000 418.400000
371 12897 6180 1 109.50000 418.400000
372 12897 373 1 109.50000 418.400000
372 12897 6180 1 109.50000 418.400000
373 12897 6180 1 109.50000 418.400000
6268 12898 6269 1 109.50000 418.400000
6268 12898 6270 1 109.50000 418.400000
6268 12898 6271 1 109.50000 418.400000
6269 12898 6270 1 109.50000 418.400000
6269 12898 6271 1 109.50000 418.400000
6270 12898 6271 1 109.50000 418.400000
6272 12899 6273 1 109.50000 418.400000
6272 12899 6274 1 109.50000 418.400000
6272 12899 6645 1 109.50000 418.400000
6273 12899 6274 1 109.50000 418.400000
6273 12899 6645 1 109.50000 418.400000
6274 12899 6645 1 109.50000 418.400000
6278 12900 6279 1 109.50000 418.400000
6278 12900 6280 1 109.50000 418.400000
6278 12900 6281 1 109.50000 418.400000
6279 12900 6280 1 109.50000 418.400000
6279 12900 6281 1 109.50000 418.400000
6280 12900 6281 1 109.50000 418.400000
1475 12901 2616 1 109.50000 418.400000
1475 12901 3373 1 109.50000 418.400000
1475 12901 6282 1 109.50000 418.400000
2616 12901 3373 1 109.50000 418.400000
2616 12901 6282 1 109.50000 418.400000
3373 12901 6282 1 109.50000 418.400000
5812 12902 6283 1 109.50000 418.400000
5812 12902 6284 1 109.50000 418.400000
5812 12902 6285 1 109.50000 418.400000
6283 12902 6284 1 109.50000 418.400000
6283 12902 6285 1 109.50000 418.400000
6284 12902 6285 1 109.50000 418.400000
1277 12903 3654 1 109.50000 418.400000
1277 12903 6286 1 109.50000 418.400000
1277 12903 6287 1 109.50000 418.400000
3654 12903 6286 1 109.50000 418.400000
3654 12903 6287 1 109.50000 418.400000
6286 12903 6287 1 109.50000 418.400000
1916 12904 5293 1 109.50000 418.400000
1916 12904 6288 1 109.50000 418.400000
1916 12904 6289 1 109.50000 418.400000
5293 12904 6288 1 109.50000 418.400000
5293 12904 6289 1 109.50000 418.400000
6288 12904 6289 1 109.50000 418.400000
1275 12905 3964 1 109.50000 418.400000
1275 12905 6290 1 109.50000 418.400000
1275 12905 6291 1 109.50000 418.400000
3964 12905 6290 1 109.50000 418.400000
3964 12905 6291 1 109.50000 418.400000
6290 12905 6291 1 109.50000 418.400000
5873 12906 6292 1 109.50000 418.400000
5873 12906 6293 1 109.50000 418.400000
5873 12906 6294 1 109.50000 418.400000
6292 12906 6293 1 109.50000 418.400000
6292 12906 6294 1 109.50000 418.400000
6293 12906 6294 1 109.50000 418.400000
3286 12907 6008 1 109.50000 418.400000
3286 12907 6295 1 109.50000 418.400000
3286 12907 6296 1 109.50000 418.400000
6008 12907 6295 1 109.50000 418.400000
6008 12907 6296 1 109.50000 418.400000
6295 12907 6296 1 109.50000 418.400000
6297 12908 6298 1 109.50000 418.400000
6297 12908 6299 1 109.50000 418.400000
6297 12908 6300 1 109.50000 418.400000
6298 12908 6299 1 109.50000 418.400000
6298 12908 6300 1 109.50000 418.400000
6299 12908 6300 1 109.50000 418.400000
1757 12909 6301 1 109.50000 418.400000
1757 12909 6302 1 109.50000 418.400000
1757 12909 6303 1 109.50000 418.400000
6301 12909 6302 1 109.50000 418.400000
6301 12909 6303 1 109.50000 418.400000
6302 12909 6303 1 109.50000 418.400000
4131 12910 4973 1 109.50000 418.400000
4131 12910 6304 1 109.50000 418.400000
4131 12910 6305 1 109.50000 418.400000
4973 12910 6304 1 109.50000 418.400000
4973 12910 6305 1 109.50000 418.400000
6304 12910 6305 1 109.50000 418.400000
3368 12911 6306 1 109.50000 418.400000
3368 12911 6307 1 109.50000 418.400000
3368 12911 6308 1 109.50000 418.400000
6306 12911 6307 1 109.50000 418.400000
6306 12911 6308 1 109.50000 418.400000
6307 12911 6308 1 109.50000 418.400000
1996 12912 6311 1 109.50000 418.400000
1996 12912 6312 1 109.50000 418.400000
1996 12912 6313 1 109.50000 418.400000
6311 12912 6312 1 109.50000 418.400000
6311 12912 6313 1 109.50000 418.400000
6312 12912 6313 1 109.50000 418.400000
4047 12913 6316 1 109.50000 418.400000
4047 12913 6317 1 109.50000 418.400000
4047 12913 6318 1 109.50000 418.400000
6316 12913 6317 1 109.50000 418.400000
6316 12913 6318 1 109.50000 418.400000
6317 12913 6318 1 109.50000 418.400000
6319 12914 6320 1 109.50000 418.400000
6319 12914 6321 1 109.50000 418.400000
6319 12914 6322 1 109.50000 418.400000
6320 12914 6321 1 109.50000 418.400000
6320 12914 6322 1 109.50000 418.400000
6321 12914 6322 1 109.50000 418.400000
5166 12915 5675 1 109.50000 418.400000
5166 12915 6323 1 109.50000 418.400000
5166 12915 6324 1 109.50000 418.400000
5675 12915 6323 1 109.50000 418.400000
5675 12915 6324 1 109.50000 418.400000
6323 12915 6324 1 109.50000 418.400000
2126 12916 6325 1 109.50000 418.400000
2126 12916 6326 1 109.50000 418.400000
2126 12916 6327 1 109.50000 418.400000
6325 12916 6326 1 109.50000 418.400000
6325 12916 6327 1 109.50000 418.400000
6326 12916 6327 1 109.50000 418.400000
2735 12917 6328 1 109.50000 418.400000
2735 12917 6329 1 109.50000 418.400000
2735 12917 6330 1 109.50000 418.400000
6328 12917 6329 1 109.50000 418.400000
6328 12917 6330 1 109.50000 418.400000
6329 12917 6330 1 109.50000 418.400000
6331 12918 6332 1 109.50000 418.400000
6331 12918 6333 1 109.50000 418.400000
6331 12918 6334 1 109.50000 418.400000
6332 12918 6333 1 109.50000 418.400000
6332 12918 6334 1 109.50000 418.400000
6333 12918 6334 1 109.50000 418.400000
87 12919 5533 1 109.50000 418.400000
87 12919 6336 1 109.50000 418.400000
87 12919 9085 1 109.50000 418.400000
5533 12919 6336 1 109.50000 418.400000
5533 12919 9085 1 109.50000 418.400000
6336 12919 9085 1 109.50000 418.400000
3369 12920 5534 1 109.50000 418.400000
3369 12920 6338 1 109.50000 418.400000
3369 12920 6339 1 109.50000 418.400000
5534 12920 6338 1 109.50000 418.400000
5534 12920 6339 1 109.50000 418.400000
6338 12920 6339 1 109.50000 418.400000
4223 12921 6340 1 109.50000 418.400000
4223 12921 6341 1 109.50000 418.400000
4223 12921 6342 1 109.50000 418.400000
6340 12921 6341 1 109.50000 418.400000
6340 12921 6342 1 109.50000 418.400000
6341 12921 6342 1 109.50000 418.400000
1950 12922 2017 1 109.50000 418.400000
1950 12922 6343 1 109.50000 418.400000
1950 12922 6345 1 109.50000 418.400000
2017 12922 6343 1 109.50000 418.400000
2017 12922 6345 1 109.50000 418.400000
6343 12922 6345 1 109.50000 418.400000
6346 12923 6347 1 109.50000 418.400000
6346 12923 6348 1 109.50000 418.400000
6346 12923 6349 1 109.50000 418.400000
6347 12923 6348 1 109.50000 418.400000
6347 12923 6349 1 109.50000 418.400000
6348 12923 6349 1 109.50000 418.400000
2052 12924 2719 1 109.50000 418.400000
2052 12924 6352 1 109.50000 418.400000
2052 12924 6353 1 109.50000 418.400000
2719 12924 6352 1 109.50000 418.400000
2719 12924 6353 1 109.50000 418.400000
6352 12924 6353 1 109.50000 418.400000
5113 12925 5115 1 109.50000 418.400000
5113 12925 6354 1 109.50000 418.400000
5113 12925 6355 1 109.50000 418.400000
5115 12925 6354 1 109.50000 418.400000
5115 12925 6355 1 109.50000 418.400000
6354 12925 6355 1 109.50000 418.400000
423 12926 3117 1 109.50000 418.400000
423 12926 4717 1 109.50000 418.400000
423 12926 6357 1 109.50000 418.400000
3117 12926 4717 1 109.50000 418.400000
3117 12926 6357 1 109.50000 418.400000
4717 12926 6357 1 109.50000 418.400000
3090 12927 5951 1 109.50000 418.400000
3090 12927 6358 1 109.50000 418.400000
3090 12927 6359 1 109.50000 418.400000
5951 12927 6358 1 109.50000 418.400000
5951 12927 6359 1 109.50000 418.400000
6358 12927 6359 1 109.50000 418.400000
6360 12928 6362 1 109.50000 418.400000
6360 12928 6363 1 109.50000 418.400000
6360 12928 7308 1 109.50000 418.400000
6362 12928 6363 1 109.50000 418.400000
6362 12928 7308 1 109.50000 418.400000
6363 12928 7308 1 109.50000 418.400000
6364 12929 6365 1 109.50000 418.400000
6364 12929 6366 1 109.50000 418.400000
6364 12929 6367 1 109.50000 418.400000
6365 12929 6366 1 109.50000 418.400000
6365 12929 6367 1 109.50000 418.400000
6366 12929 6367 1 109.50000 418.400000
3994 12930 6368 1 109.50000 418.400000
3994 12930 6369 1 109.50000 418.400000
3994 12930 6370 1 109.50000 418.400000
6368 12930 6369 1 109.50000 418.400000
6368 12930 6370 1 109.50000 418.400000
6369 12930 6370 1 109.50000 418.400000
2967 12931 6371 1 109.50000 418.400000
2967 12931 6372 1 109.50000 418.400000
2967 12931 6373 1 109.50000 418.400000
6371 12931 6372 1 109.50000 418.400000
6371 12931 6373 1 109.50000 418.400000
6372 12931 6373 1 109.50000 418.400000
5340 12932 6313 1 109.50000 418.400000
5340 12932 6374 1 109.50000 418.400000
5340 12932 6375 1 109.50000 418.400000
6313 12932 6374 1 109.50000 418.400000
6313 12932 6375 1 109.50000 418.400000
6374 12932 6375 1 109.50000 418.400000
515 12933 5700 1 109.50000 418.400000
515 12933 6376 1 109.50000 418.400000
515 12933 6377 1 109.50000 418.400000
5700 12933 6376 1 109.50000 418.400000
5700 12933 6377 1 109.50000 418.400000
6376 12933 6377 1 109.50000 418.400000
818 12934 2222 1 109.50000 418.400000
818 12934 5510 1 109.50000 418.400000
818 12934 6381 1 109.50000 418.400000
2222 12934 5510 1 109.50000 418.400000
2222 12934 6381 1 109.50000 418.400000
5510 12934 6381 1 109.50000 418.400000
6387 12935 6388 1 109.50000 418.400000
6387 12935 6389 1 109.50000 418.400000
6387 12935 6390 1 109.50000 418.400000
6388 12935 6389 1 109.50000 418.400000
6388 12935 6390 1 109.50000 418.400000
6389 12935 6390 1 109.50000 418.400000
6391 12936 6392 1 109.50000 418.400000
6391 12936 6393 1 109.50000 418.400000
6391 12936 6394 1 109.50000 418.400000
6392 12936 6393 1 109.50000 418.400000
6392 12936 6394 1 109.50000 418.400000
6393 12936 6394 1 109.50000 418.400000
5661 12937 6398 1 109.50000 418.400000
5661 12937 6399 1 109.50000 418.400000
5661 12937 6778 1 109.50000 418.400000
6398 12937 6399 1 109.50000 418.400000
6398 12937 6778 1 109.50000 418.400000
6399 12937 6778 1 109.50000 418.400000
6402 12938 6403 1 109.50000 418.400000
6402 12938 10022 1 109.50000 418.400000
6402 12938 10024 1 109.50000 418.400000
6403 12938 10022 1 109.50000 418.400000
6403 12938 10024 1 109.50000 418.400000
10022 12938 10024 1 109.50000 418.400000
3944 12939 5219 1 109.50000 418.400000
3944 12939 6407 1 109.50000 418.400000
3944 12939 6408 1 109.50000 418.400000
5219 12939 6407 1 109.50000 418.400000
5219 12939 6408 1 109.50000 418.400000
6407 12939 6408 1 109.50000 418.400000
2615 12940 4908 1 109.50000 418.400000
2615 12940 6392 1 109.50000 418.400000
2615 12940 6409 1 109.50000 418.400000
4908 12940 6392 1 109.50000 418.400000
4908 12940 6409 1 109.50000 418.400000
6392 12940 6409 1 109.50000 418.400000
1025 12941 4844 1 109.50000 418.400000
1025 12941 6410 1 109.50000 418.400000
1025 12941 6411 1 109.50000 418.400000
4844 12941 6410 1 109.50000 418.400000
4844 12941 6411 1 109.50000 418.400000
6410 12941 6411 1 109.50000 418.400000
1420 12942 1734 1 109.50000 418.400000
1420 12942 6414 1 109.50000 418.400000
1420 12942 7233 1 109.50000 418.400000
1734 12942 6414 1 109.50000 418.400000
1734 12942 7233 1 109.50000 418.400000
6414 12942 7233 1 109.50000 418.400000
686 12943 4435 1 109.50000 418.400000
686 12943 4862 1 109.50000 418.400000
686 12943 6415 1 109.50000 418.400000
4435 12943 4862 1 109.50000 418.400000
4435 12943 6415 1 109.50000 418.400000
4862 12943 6415 1 109.50000 418.400000
5027 12944 6416 1 109.50000 418.400000
5027 12944 6418 1 109.50000 418.400000
5027 12944 7865 1 109.50000 418.400000
6416 12944 6418 1 109.50000 418.400000
6416 12944 7865 1 109.50000 418.400000
6418 12944 7865 1 109.50000 418.400000
3813 12945 4730 1 109.50000 418.400000
3813 12945 6419 1 109.50000 418.400000
3813 12945 6420 1 109.50000 418.400000
4730 12945 6419 1 109.50000 418.400000
4730 12945 6420 1 109.50000 418.400000
6419 12945 6420 1 109.50000 418.400000
808 12946 3227 1 109.50000 418.400000
808 12946 6421 1 109.50000 418.400000
808 12946 6422 1 109.50000 418.400000
3227 12946 6421 1 109.50000 418.400000
3227 12946 6422 1 109.50000 418.400000
6421 12946 6422 1 109.50000 418.400000
6424 12947 6425 1 109.50000 418.400000
6424 12947 6426 1 109.50000 418.400000
6424 12947 6427 1 109.50000 418.400000
6425 12947 6426 1 109.50000 418.400000
6425 12947 6427 1 109.50000 418.400000
6426 12947 6427 1 109.50000 418.400000
4430 12948 4902 1 109.50000 418.400000
4430 12948 6428 1 109.50000 418.400000
4430 12948 6429 1 109.50000 418.400000
4902 12948 6428 1 109.50000 418.400000
4902 12948 6429 1 109.50000 418.400000
6428 12948 6429 1 109.50000 418.400000
163 12949 5067 1 109.50000 418.400000
163 12949 6430 1 109.50000 418.400000
163 12949 6431 1 109.50000 418.400000
5067 12949 6430 1 109.50000 418.400000
5067 12949 6431 1 109.50000 418.400000
6430 12949 6431 1 109.50000 418.400000
3239 12950 5007 1 109.50000 418.400000
3239 12950 6432 1 109.50000 418.400000
3239 12950 6433 1 109.50000 418.400000
5007 12950 6432 1 109.50000 418.400000
5007 12950 6433 1 109.50000 418.400000
6432 12950 6433 1 109.50000 418.400000
6406 12951 6434 1 109.50000 418.400000
6406 12951 6435 1 109.50000 418.400000
6406 12951 6436 1 109.50000 418.400000
6434 12951 6435 1 109.50000 418.400000
6434 12951 6436 1 109.50000 418.400000
6435 12951 6436 1 109.50000 418.400000
134 12952 5025 1 109.50000 418.400000
134 12952 6438 1 109.50000 418.400000
134 12952 6439 1 109.50000 418.400000
5025 12952 6438 1 109.50000 418.400000
5025 12952 6439 1 109.50000 418.400000
6438 12952 6439 1 109.50000 418.400000
5104 12953 6440 1 109.50000 418.400000
5104 12953 6441 1 109.50000 418.400000
5104 12953 6442 1 109.50000 418.400000
6440 12953 6441 1 109.50000 418.400000
6440 12953 6442 1 109.50000 418.400000
6441 12953 6442 1 109.50000 418.400000
6443 12954 6444 1 109.50000 418.400000
6443 12954 6445 1 109.50000 418.400000
6443 12954 6446 1 109.50000 418.400000
6444 12954 6445 1 109.50000 418.400000
6444 12954 6446 1 109.50000 418.400000
6445 12954 6446 1 109.50000 418.400000
1261 12955 6447 1 109.50000 418.400000
1261 12955 6448 1 109.50000 418.400000
1261 12955 6449 1 109.50000 418.400000
6447 12955 6448 1 109.50000 418.400000
6447 12955 6449 1 109.50000 418.400000
6448 12955 6449 1 109.50000 418.400000
5992 12956 6450 1 109.50000 418.400000
5992 12956 6451 1 109.50000 418.400000
5992 12956 6452 1 109.50000 418.400000
6450 12956 6451 1 109.50000 418.400000
6450 12956 6452 1 109.50000 418.400000
6451 12956 6452 1 109.50000 418.400000
3290 12957 6453 1 109.50000 418.400000
3290 12957 6454 1 109.50000 418.400000
3290 12957 6455 1 109.50000 418.400000
6453 12957 6454 1 109.50000 418.400000
6453 12957 6455 1 109.50000 418.400000
6454 12957 6455 1 109.50000 418.400000
6456 12958 6457 1 109.50000 418.400000
6456 12958 6458 1 109.50000 418.400000
6456 12958 6459 1 109.50000 418.400000
6457 12958 6458 1 109.50000 418.400000
6457 12958 6459 1 109.50000 418.400000
6458 12958 6459 1 109.50000 418.400000
6460 12959 6461 1 109.50000 418.400000
6460 12959 6462 1 109.50000 418.400000
6460 12959 6463 1 109.50000 418.400000
6461 12959 6462 1 109.50000 418.400000
6461 12959 6463 1 109.50000 418.400000
6462 12959 6463 1 109.50000 418.400000
5519 12960 6464 1 109.50000 418.400000
5519 12960 6465 1 109.50000 418.400000
5519 12960 6466 1 109.50000 418.400000
6464 12960 6465 1 109.50000 418.400000
6464 12960 6466 1 109.50000 418.400000
6465 12960 6466 1 109.50000 418.400000
1421 12961 4026 1 109.50000 418.400000
1421 12961 4027 1 109.50000 418.400000
1421 12961 6469 1 109.50000 418.400000
4026 12961 4027 1 109.50000 418.400000
4026 12961 6469 1 109.50000 418.400000
4027 12961 6469 1 109.50000 418.400000
1000 12962 4411 1 109.50000 418.400000
1000 12962 6471 1 109.50000 418.400000
1000 12962 6472 1 109.50000 418.400000
4411 12962 6471 1 109.50000 418.400000
4411 12962 6472 1 109.50000 418.400000
6471 12962 6472 1 109.50000 418.400000
2892 12963 6473 1 109.50000 418.400000
2892 12963 6474 1 109.50000 418.400000
2892 12963 6475 1 109.50000 418.400000
6473 12963 6474 1 109.50000 418.400000
6473 12963 6475 1 109.50000 418.400000
6474 12963 6475 1 109.50000 418.400000
1235 12964 6476 1 109.50000 418.400000
1235 12964 6477 1 109.50000 418.400000
1235 12964 6478 1 109.50000 418.400000
6476 12964 6477 1 109.50000 418.400000
6476 12964 6478 1 109.50000 418.400000
6477 12964 6478 1 109.50000 418.400000
1605 12965 3649 1 109.50000 418.400000
1605 12965 3799 1 109.50000 418.400000
1605 12965 6479 1 109.50000 418.400000
3649 12965 3799 1 109.50000 418.400000
3649 12965 6479 1 109.50000 418.400000
3799 12965 6479 1 109.50000 418.400000
4015 12966 6480 1 109.50000 418.400000
4015 12966 6481 1 109.50000 418.400000
4015 12966 6482 1 109.50000 418.400000
6480 12966 6481 1 109.50000 418.400000
6480 12966 6482 1 109.50000 418.400000
6481 12966 6482 1 109.50000 418.400000
3341 12967 6483 1 109.50000 418.400000
3341 12967 6484 1 109.50000 418.400000
3341 12967 6485 1 109.50000 418.400000
6483 12967 6484 1 109.50000 418.400000
6483 12967 6485 1 109.50000 418.400000
6484 12967 6485 1 109.50000 418.400000
569 12968 1655 1 109.50000 418.400000
569 12968 3453 1 109.50000 418.400000
569 12968 6489 1 109.50000 418.400000
1655 12968 3453 1 109.50000 418.400000
1655 12968 6489 1 109.50000 418.400000
3453 12968 6489 1 109.50000 418.400000
3298 12969 3300 1 109.50000 418.400000
3298 12969 6490 1 109.50000 418.400000
3298 12969 6491 1 109.50000 418.400000
3300 12969 6490 1 109.50000 418.400000
3300 12969 6491 1 109.50000 418.400000
6490 12969 6491 1 109.50000 418.400000
6493 12970 6494 1 109.50000 418.400000
6493 12970 6495 1 109.50000 418.400000
6493 12970 6496 1 109.50000 418.400000
6494 12970 6495 1 109.50000 418.400000
6494 12970 6496 1 109.50000 418.400000
6495 12970 6496 1 109.50000 418.400000
6497 12971 6498 1 109.50000 418.400000
6497 12971 6499 1 109.50000 418.400000
6497 12971 6500 1 109.50000 418.400000
6498 12971 6499 1 109.50000 418.400000
6498 12971 6500 1 109.50000 418.400000
6499 12971 6500 1 109.50000 418.400000
1716 12972 5704 1 109.50000 418.400000
1716 12972 6501 1 109.50000 418.400000
1716 12972 6502 1 109.50000 418.400000
5704 12972 6501 1 109.50000 418.400000
5704 12972 6502 1 109.50000 418.400000
6501 12972 6502 1 109.50000 418.400000
420 12973 4794 1 109.50000 418.400000
420 12973 6503 1 109.50000 418.400000
420 12973 6504 1 109.50000 418.400000
4794 12973 6503 1 109.50000 418.400000
4794 12973 6504 1 109.50000 418.400000
6503 12973 6504 1 109.50000 418.400000
216 12974 1144 1 109.50000 418.400000
216 12974 6505 1 109.50000 418.400000
216 12974 6506 1 109.50000 418.400000
1144 12974 6505 1 109.50000 418.400000
1144 12974 6506 1 109.50000 418.400000
6505 12974 6506 1 109.50000 418.400000
1097 12975 3532 1 109.50000 418.400000
1097 12975 5312 1 109.50000 418.400000
1097 12975 6507 1 109.50000 418.400000
3532 12975 5312 1 109.50000 418.400000
3532 12975 6507 1 109.50000 418.400000
5312 12975 6507 1 109.50000 418.400000
6508 12976 6509 1 109.50000 418.400000
6508 12976 6510 1 109.50000 418.400000
6508 12976 6511 1 109.50000 418.400000
6509 12976 6510 1 109.50000 418.400000
6509 12976 6511 1 109.50000 418.400000
6510 12976 6511 1 109.50000 418.400000
1872 12977 5784 1 109.50000 418.400000
1872 12977 6062 1 109.50000 418.400000
1872 12977 6512 1 109.50000 418.400000
5784 12977 6062 1 109.50000 418.400000
5784 12977 6512 1 109.50000 418.400000
6062 12977 6512 1 109.50000 418.400000
2266 12978 5983 1 109.50000 418.400000
2266 12978 6513 1 109.50000 418.400000
2266 12978 6514 1 109.50000 418.400000
5983 12978 6513 1 109.50000 418.400000
5983 12978 6514 1 109.50000 418.400000
6513 12978 6514 1 109.50000 418.400000
2686 12979 4741 1 109.50000 418.400000
2686 12979 6515 1 109.50000 418.400000
2686 12979 6516 1 109.50000 418.400000
4741 12979 6515 1 109.50000 418.400000
4741 12979 6516 1 109.50000 418.400000
6515 12979 6516 1 109.50000 418.400000
4103 12980 6517 1 109.50000 418.400000
4103 12980 6518 1 109.50000 418.400000
4103 12980 8916 1 109.50000 418.400000
6517 12980 6518 1 109.50000 418.400000
6517 12980 8916 1 109.50000 418.400000
6518 12980 8916 1 109.50000 418.400000
3729 12981 6520 1 109.50000 418.400000
3729 12981 6521 1 109.50000 418.400000
3729 12981 9788 1 109.50000 418.400000
6520 12981 6521 1 109.50000 418.400000
6520 12981 9788 1 109.50000 418.400000
6521 12981 9788 1 109.50000 418.400000
1650 12982 6522 1 109.50000 418.400000
1650 12982 6523 1 109.50000 418.400000
1650 12982 6524 1 109.50000 418.400000
6522 12982 6523 1 109.50000 418.400000
6522 12982 6524 1 109.50000 418.400000
6523 12982 6524 1 109.50000 418.400000
1664 12983 6527 1 109.50000 418.400000
1664 12983 6528 1 109.50000 418.400000
1664 12983 6529 1 109.50000 418.400000
6527 12983 6528 1 109.50000 418.400000
6527 12983 6529 1 109.50000 418.400000
6528 12983 6529 1 109.50000 418.400000
505 12984 1594 1 109.50000 418.400000
505 12984 6530 1 109.50000 418.400000
505 12984 6531 1 109.50000 418.400000
1594 12984 6530 1 109.50000 418.400000
1594 12984 6531 1 109.50000 418.400000
6530 12984 6531 1 109.50000 418.400000
6532 12985 6533 1 109.50000 418.400000
6532 12985 6534 1 109.50000 418.400000
6532 12985 6535 1 109.50000 418.400000
6533 12985 6534 1 109.50000 418.400000
6533 12985 6535 1 109.50000 418.400000
6534 12985 6535 1 109.50000 418.400000
667 12986 2672 1 109.50000 418.400000
667 12986 6536 1 109.50000 418.400000
667 12986 6537 1 109.50000 418.400000
2672 12986 6536 1 109.50000 418.400000
2672 12986 6537 1 109.50000 418.400000
6536 12986 6537 1 109.50000 418.400000
600 12987 5830 1 109.50000 418.400000
600 12987 6538 1 109.50000 418.400000
600 12987 6539 1 109.50000 418.400000
5830 12987 6538 1 109.50000 418.400000
5830 12987 6539 1 109.50000 418.400000
6538 12987 6539 1 109.50000 418.400000
787 12988 2709 1 109.50000 418.400000
787 12988 3980 1 109.50000 418.400000
787 12988 5754 1 109.50000 418.400000
2709 12988 3980 1 109.50000 418.400000
2709 12988 5754 1 109.50000 418.400000
3980 12988 5754 1 109.50000 418.400000
6540 12989 6541 1 109.50000 418.400000
6540 12989 6542 1 109.50000 418.400000
6540 12989 6543 1 109.50000 418.400000
6541 12989 6542 1 109.50000 418.400000
6541 12989 6543 1 109.50000 418.400000
6542 12989 6543 1 109.50000 418.400000
6544 12990 6545 1 109.50000 418.400000
6544 12990 8277 1 109.50000 418.400000
6544 12990 8279 1 109.50000 418.400000
6545 12990 8277 1 109.50000 418.400000
6545 12990 8279 1 109.50000 418.400000
8277 12990 8279 1 109.50000 418.400000
490 12991 1063 1 109.50000 418.400000
490 12991 1064 1 109.50000 418.400000
490 12991 1065 1 109.50000 418.400000
1063 12991 1064 1 109.50000 418.400000
1063 12991 1065 1 109.50000 418.400000
1064 12991 1065 1 109.50000 418.400000
552 12992 6550 1 109.50000 418.400000
552 12992 6551 1 109.50000 418.400000
552 12992 6822 1 109.50000 418.400000
6550 12992 6551 1 109.50000 418.400000
6550 12992 6822 1 109.50000 418.400000
6551 12992 6822 1 109.50000 418.400000
5902 12993 5925 1 109.50000 418.400000
5902 12993 6553 1 109.50000 418.400000
5902 12993 6554 1 109.50000 418.400000
5925 12993 6553 1 109.50000 418.400000
5925 12993 6554 1 109.50000 418.400000
6553 12993 6554 1 109.50000 418.400000
870 12994 2515 1 109.50000 418.400000
870 12994 5948 1 109.50000 418.400000
870 12994 6555 1 109.50000 418.400000
2515 12994 5948 1 109.50000 418.400000
2515 12994 6555 1 109.50000 418.400000
5948 12994 6555 1 109.50000 418.400000
6559 12995 6560 1 109.50000 418.400000
6559 12995 6561 1 109.50000 418.400000
6559 12995 6562 1 109.50000 418.400000
6560 12995 6561 1 109.50000 418.400000
6560 12995 6562 1 109.50000 418.400000
6561 12995 6562 1 109.50000 418.400000
2444 12996 6563 1 109.50000 418.400000
2444 12996 6564 1 109.50000 418.400000
2444 12996 6565 1 109.50000 418.400000
6563 12996 6564 1 109.50000 418.400000
6563 12996 6565 1 109.50000 418.400000
6564 12996 6565 1 109.50000 418.400000
238 12997 3590 1 109.50000 418.400000
238 12997 6141 1 109.50000 418.400000
238 12997 6571 1 109.50000 418.400000
3590 12997 6141 1 109.50000 418.400000
3590 12997 6571 1 109.50000 418.400000
6141 12997 6571 1 109.50000 418.400000
4468 12998 6575 1 109.50000 418.400000
4468 12998 6576 1 109.50000 418.400000
4468 12998 6577 1 109.50000 418.400000
6575 12998 6576 1 109.50000 418.400000
6575 12998 6577 1 109.50000 418.400000
6576 12998 6577 1 109.50000 418.400000
1433 12999 6578 1 109.50000 418.400000
1433 12999 6579 1 109.50000 418.400000
1433 12999 6580 1 109.50000 418.400000
6578 12999 6579 1 109.50000 418.400000
6578 12999 6580 1 109.50000 418.400000
6579 12999 6580 1 109.50000 418.400000
6582 13000 6583 1 109.50000 418.400000
6582 13000 6584 1 109.50000 418.400000
6582 13000 6585 1 109.50000 418.400000
6583 13000 6584 1 109.50000 418.400000
6583 13000 6585 1 109.50000 418.400000
6584 13000 6585 1 109.50000 418.400000
2380 13001 3156 1 109.50000 418.400000
2380 13001 4547 1 109.50000 418.400000
2380 13001 6586 1 109.50000 418.400000
3156 13001 4547 1 109.50000 418.400000
3156 13001 6586 1 109.50000 418.400000
4547 13001 6586 1 109.50000 418.400000
6589 13002 6590 1 109.50000 418.400000
6589 13002 6591 1 109.50000 418.400000
6589 13002 6616 1 109.50000 418.400000
6590 13002 6591 1 109.50000 418.400000
6590 13002 6616 1 109.50000 418.400000
6591 13002 6616 1 109.50000 418.400000
2013 13003 2962 1 109.50000 418.400000
2013 13003 6592 1 109.50000 418.400000
2013 13003 6593 1 109.50000 418.400000
2962 13003 6592 1 109.50000 418.400000
2962 13003 6593 1 109.50000 418.400000
6592 13003 6593 1 109.50000 418.400000
418 13004 6594 1 109.50000 418.400000
418 13004 6595 1 109.50000 418.400000
418 13004 6596 1 109.50000 418.400000
6594 13004 6595 1 109.50000 418.400000
6594 13004 6596 1 109.50000 418.400000
6595 13004 6596 1 109.50000 418.400000
2345 13005 6597 1 109.50000 418.400000
2345 13005 6598 1 109.50000 418.400000
2345 13005 6599 1 109.50000 418.400000
6597 13005 6598 1 109.50000 418.400000
6597 13005 6599 1 109.50000 418.400000
6598 13005 6599 1 109.50000 418.400000
6602 13006 6603 1 109.50000 418.400000
6602 13006 6604 1 109.50000 418.400000
6602 13006 6605 1 109.50000 418.400000
6603 13006 6604 1 109.50000 418.400000
6603 13006 6605 1 109.50000 418.400000
6604 13006 6605 1 109.50000 418.400000
1392 13007 5733 1 109.50000 418.400000
1392 13007 6606 1 109.50000 418.400000
1392 13007 6607 1 109.50000 418.400000
5733 13007 6606 1 109.50000 418.400000
5733 13007 6607 1 109.50000 418.400000
6606 13007 6607 1 109.50000 418.400000
6608 13008 6609 1 109.50000 418.400000
6608 13008 6610 1 109.50000 418.400000
6608 13008 6611 1 109.50000 418.400000
6609 13008 6610 1 109.50000 418.400000
6609 13008 6611 1 109.50000 418.400000
6610 13008 6611 1 109.50000 418.400000
2696 13009 6612 1 109.50000 418.400000
2696 13009 6613 1 109.50000 418.400000
2696 13009 6614 1 109.50000 418.400000
6612 13009 6613 1 109.50000 418.400000
6612 13009 6614 1 109.50000 418.400000
6613 13009 6614 1 109.50000 418.400000
965 13010 6615 1 109.50000 418.400000
965 13010 6616 1 109.50000 418.400000
965 13010 6617 1 109.50000 418.400000
6615 13010 6616 1 109.50000 418.400000
6615 13010 6617 1 109.50000 418.400000
6616 13010 6617 1 109.50000 418.400000
3061 13011 4696 1 109.50000 418.400000
3061 13011 6618 1 109.50000 418.400000
3061 13011 6619 1 109.50000 418.400000
4696 13011 6618 1 109.50000 418.400000
4696 13011 6619 1 109.50000 418.400000
6618 13011 6619 1 109.50000 418.400000
2706 13012 6620 1 109.50000 418.400000
2706 13012 6621 1 109.50000 418.400000
2706 13012 7477 1 109.50000 418.400000
6620 13012 6621 1 109.50000 418.400000
6620 13012 7477 1 109.50000 418.400000
6621 13012 7477 1 109.50000 418.400000
3787 13013 5290 1 109.50000 418.400000
3787 13013 6623 1 109.50000 418.400000
3787 13013 6624 1 109.50000 418.400000
5290 13013 6623 1 109.50000 418.400000
5290 13013 6624 1 109.50000 418.400000
6623 13013 6624 1 109.50000 418.400000
6625 13014 6626 1 109.50000 418.400000
6625 13014 6627 1 109.50000 418.400000
6625 13014 6628 1 109.50000 418.400000
6626 13014 6627 1 109.50000 418.400000
6626 13014 6628 1 109.50000 418.400000
6627 13014 6628 1 109.50000 418.400000
6250 13015 6629 1 109.50000 418.400000
6250 13015 6630 1 109.50000 418.400000
6250 13015 9981 1 109.50000 418.400000
6629 13015 6630 1 109.50000 418.400000
6629 13015 9981 1 109.50000 418.400000
6630 13015 9981 1 109.50000 418.400000
4237 13016 5401 1 109.50000 418.400000
4237 13016 6631 1 109.50000 418.400000
4237 13016 6632 1 109.50000 418.400000
5401 13016 6631 1 109.50000 418.400000
5401 13016 6632 1 109.50000 418.400000
6631 13016 6632 1 109.50000 418.400000
2372 13017 2563 1 109.50000 418.400000
2372 13017 4729 1 109.50000 418.400000
2372 13017 5464 1 109.50000 418.400000
2563 13017 4729 1 109.50000 418.400000
2563 13017 5464 1 109.50000 418.400000
4729 13017 5464 1 109.50000 418.400000
4905 13018 6633 1 109.50000 418.400000
4905 13018 6634 1 109.50000 418.400000
4905 13018 6635 1 109.50000 418.400000
6633 13018 6634 1 109.50000 418.400000
6633 13018 6635 1 109.50000 418.400000
6634 13018 6635 1 109.50000 418.400000
6127 13019 6636 1 109.50000 418.400000
6127 13019 6637 1 109.50000 418.400000
6127 13019 6638 1 109.50000 418.400000
6636 13019 6637 1 109.50000 418.400000
6636 13019 6638 1 109.50000 418.400000
6637 13019 6638 1 109.50000 418.400000
1808 13020 6640 1 109.50000 418.400000
1808 13020 6641 1 109.50000 418.400000
1808 13020 6642 1 109.50000 418.400000
6640 13020 6641 1 109.50000 418.400000
6640 13020 6642 1 109.50000 418.400000
6641 13020 6642 1 109.50000 418.400000
5132 13021 6644 1 109.50000 418.400000
5132 13021 6645 1 109.50000 418.400000
5132 13021 6646 1 109.50000 418.400000
6644 13021 6645 1 109.50000 418.400000
6644 13021 6646 1 109.50000 418.400000
6645 13021 6646 1 109.50000 418.400000
6651 13022 6652 1 109.50000 418.400000
6651 13022 6653 1 109.50000 418.400000
6651 13022 6654 1 109.50000 418.400000
6652 13022 6653 1 109.50000 418.400000
6652 13022 6654 1 109.50000 418.400000
6653 13022 6654 1 109.50000 418.400000
4393 13023 6655 1 109.50000 418.400000
4393 13023 6656 1 109.50000 418.400000
4393 13023 6657 1 109.50000 418.400000
6655 13023 6656 1 109.50000 418.400000
6655 13023 6657 1 109.50000 418.400000
6656 13023 6657 1 109.50000 418.400000
4656 13024 6659 1 109.50000 418.400000
4656 13024 6660 1 109.50000 418.400000
4656 13024 6661 1 109.50000 418.400000
6659 13024 6660 1 109.50000 418.400000
6659 13024 6661 1 109.50000 418.400000
6660 13024 6661 1 109.50000 418.400000
185 13025 5640 1 109.50000 418.400000
185 13025 6662 1 109.50000 418.400000
185 13025 6663 1 109.50000 418.400000
5640 13025 6662 1 109.50000 418.400000
5640 13025 6663 1 109.50000 418.400000
6662 13025 6663 1 109.50000 418.400000
4861 13026 6535 1 109.50000 418.400000
4861 13026 6664 1 109.50000 418.400000
4861 13026 6665 1 109.50000 418.400000
6535 13026 6664 1 109.50000 418.400000
6535 13026 6665 1 109.50000 418.400000
6664 13026 6665 1 109.50000 418.400000
4206 13027 4239 1 109.50000 418.400000
4206 13027 6666 1 109.50000 418.400000
4206 13027 6667 1 109.50000 418.400000
4239 13027 6666 1 109.50000 418.400000
4239 13027 6667 1 109.50000 418.400000
6666 13027 6667 1 109.50000 418.400000
1800 13028 6668 1 109.50000 418.400000
1800 13028 6669 1 109.50000 418.400000
1800 13028 6670 1 109.50000 418.400000
6668 13028 6669 1 109.50000 418.400000
6668 13028 6670 1 109.50000 418.400000
6669 13028 6670 1 109.50000 418.400000
4703 13029 6457 1 109.50000 418.400000
4703 13029 6671 1 109.50000 418.400000
4703 13029 6672 1 109.50000 418.400000
6457 13029 6671 1 109.50000 418.400000
6457 13029 6672 1 109.50000 418.400000
6671 13029 6672 1 109.50000 418.400000
5397 13030 6673 1 109.50000 418.400000
5397 13030 6674 1 109.50000 418.400000
5397 13030 6675 1 109.50000 418.400000
6673 13030 6674 1 109.50000 418.400000
6673 13030 6675 1 109.50000 418.400000
6674 13030 6675 1 109.50000 418.400000
2787 13031 6676 1 109.50000 418.400000
2787 13031 6677 1 109.50000 418.400000
2787 13031 6678 1 109.50000 418.400000
6676 13031 6677 1 109.50000 418.400000
6676 13031 6678 1 109.50000 418.400000
6677 13031 6678 1 109.50000 418.400000
6679 13032 6680 1 109.50000 418.400000
6679 13032 6681 1 109.50000 418.400000
6679 13032 6682 1 109.50000 418.400000
6680 13032 6681 1 109.50000 418.400000
6680 13032 6682 1 109.50000 418.400000
6681 13032 6682 1 109.50000 418.400000
203 13033 4267 1 109.50000 418.400000
203 13033 4374 1 109.50000 418.400000
203 13033 6683 1 109.50000 418.400000
4267 13033 4374 1 109.50000 418.400000
4267 13033 6683 1 109.50000 418.400000
4374 13033 6683 1 109.50000 418.400000
2628 13034 4564 1 109.50000 418.400000
2628 13034 6133 1 109.50000 418.400000
2628 13034 6684 1 109.50000 418.400000
4564 13034 6133 1 109.50000 418.400000
4564 13034 6684 1 109.50000 418.400000
6133 13034 6684 1 109.50000 418.400000
915 13035 4839 1 109.50000 418.400000
915 13035 6685 1 109.50000 418.400000
915 13035 6686 1 109.50000 418.400000
4839 13035 6685 1 109.50000 418.400000
4839 13035 6686 1 109.50000 418.400000
6685 13035 6686 1 109.50000 418.400000
1603 13036 2059 1 109.50000 418.400000
1603 13036 5910 1 109.50000 418.400000
1603 13036 6687 1 109.50000 418.400000
2059 13036 5910 1 109.50000 418.400000
2059 13036 6687 1 109.50000 418.400000
5910 13036 6687 1 109.50000 418.400000
1109 13037 6688 1 109.50000 418.400000
1109 13037 6689 1 109.50000 418.400000
1109 13037 6690 1 109.50000 418.400000
6688 13037 6689 1 109.50000 418.400000
6688 13037 6690 1 109.50000 418.400000
6689 13037 6690 1 109.50000 418.400000
6691 13038 6692 1 109.50000 418.400000
6691 13038 6693 1 109.50000 418.400000
6691 13038 6694 1 109.50000 418.400000
6692 13038 6693 1 109.50000 418.400000
6692 13038 6694 1 109.50000 418.400000
6693 13038 6694 1 109.50000 418.400000
6695 13039 6696 1 109.50000 418.400000
6695 13039 6697 1 109.50000 418.400000
6695 13039 6698 1 109.50000 418.400000
6696 13039 6697 1 109.50000 418.400000
6696 13039 6698 1 109.50000 418.400000
6697 13039 6698 1 109.50000 418.400000
6699 13040 6700 1 109.50000 418.400000
6699 13040 6701 1 109.50000 418.400000
6699 13040 6702 1 109.50000 418.400000
6700 13040 6701 1 109.50000 418.400000
6700 13040 6702 1 109.50000 418.400000
6701 13040 6702 1 109.50000 418.400000
3616 13041 3665 1 109.50000 418.400000
3616 13041 4837 1 109.50000 418.400000
3616 13041 6703 1 109.50000 418.400000
3665 13041 4837 1 109.50000 418.400000
3665 13041 6703 1 109.50000 418.400000
4837 13041 6703 1 109.50000 418.400000
4583 13042 4584 1 109.50000 418.400000
4583 13042 6705 1 109.50000 418.400000
4583 13042 6706 1 109.50000 418.400000
4584 13042 6705 1 109.50000 418.400000
4584 13042 6706 1 109.50000 418.400000
6705 13042 6706 1 109.50000 418.400000
5319 13043 6216 1 109.50000 418.400000
5319 13043 6707 1 109.50000 418.400000
5319 13043 6708 1 109.50000 418.400000
6216 13043 6707 1 109.50000 418.400000
6216 13043 6708 1 109.50000 418.400000
6707 13043 6708 1 109.50000 418.400000
3935 13044 3936 1 109.50000 418.400000
3935 13044 6709 1 109.50000 418.400000
3935 13044 6710 1 109.50000 418.400000
3936 13044 6709 1 109.50000 418.400000
3936 13044 6710 1 109.50000 418.400000
6709 13044 6710 1 109.50000 418.400000
1733 13045 3990 1 109.50000 418.400000
1733 13045 5245 1 109.50000 418.400000
1733 13045 6711 1 109.50000 418.400000
3990 13045 5245 1 109.50000 418.400000
3990 13045 6711 1 109.50000 418.400000
5245 13045 6711 1 109.50000 418.400000
6712 13046 6713 1 109.50000 418.400000
6712 13046 6714 1 109.50000 418.400000
6712 13046 6715 1 109.50000 418.400000
6713 13046 6714 1 109.50000 418.400000
6713 13046 6715 1 109.50000 418.400000
6714 13046 6715 1 109.50000 418.400000
576 13047 1840 1 109.50000 418.400000
576 13047 2975 1 109.50000 418.400000
576 13047 6716 1 109.50000 418.400000
1840 13047 2975 1 109.50000 418.400000
1840 13047 6716 1 109.50000 418.400000
2975 13047 6716 1 109.50000 418.400000
6717 13048 6718 1 109.50000 418.400000
6717 13048 6719 1 109.50000 418.400000
6717 13048 6720 1 109.50000 418.400000
6718 13048 6719 1 109.50000 418.400000
6718 13048 6720 1 109.50000 418.400000
6719 13048 6720 1 109.50000 418.400000
3900 13049 5538 1 109.50000 418.400000
3900 13049 6593 1 109.50000 418.400000
3900 13049 6724 1 109.50000 418.400000
5538 13049 6593 1 109.50000 418.400000
5538 13049 6724 1 109.50000 418.400000
6593 13049 6724 1 109.50000 418.400000
2381 13050 3818 1 109.50000 418.400000
2381 13050 6727 1 109.50000 418.400000
2381 13050 6728 1 109.50000 418.400000
3818 13050 6727 1 109.50000 418.400000
3818 13050 6728 1 109.50000 418.400000
6727 13050 6728 1 109.50000 418.400000
2408 13051 6729 1 109.50000 418.400000
2408 13051 6730 1 109.50000 418.400000
2408 13051 6731 1 109.50000 418.400000
6729 13051 6730 1 109.50000 418.400000
6729 13051 6731 1 109.50000 418.400000
6730 13051 6731 1 109.50000 418.400000
2643 13052 4028 1 109.50000 418.400000
2643 13052 6732 1 109.50000 418.400000
2643 13052 6733 1 109.50000 418.400000
4028 13052 6732 1 109.50000 418.400000
4028 13052 6733 1 109.50000 418.400000
6732 13052 6733 1 109.50000 418.400000
3929 13053 5694 1 109.50000 418.400000
3929 13053 5695 1 109.50000 418.400000
3929 13053 6736 1 109.50000 418.400000
5694 13053 5695 1 109.50000 418.400000
5694 13053 6736 1 109.50000 418.400000
5695 13053 6736 1 109.50000 418.400000
659 13054 6738 1 109.50000 418.400000
659 13054 6739 1 109.50000 418.400000
659 13054 6740 1 109.50000 418.400000
6738 13054 6739 1 109.50000 418.400000
6738 13054 6740 1 109.50000 418.400000
6739 13054 6740 1 109.50000 418.400000
5734 13055 6743 1 109.50000 418.400000
5734 13055 6744 1 109.50000 418.400000
5734 13055 6745 1 109.50000 418.400000
6743 13055 6744 1 109.50000 418.400000
6743 13055 6745 1 109.50000 418.400000
6744 13055 6745 1 109.50000 418.400000
5794 13056 6522 1 109.50000 418.400000
5794 13056 6746 1 109.50000 418.400000
5794 13056 6747 1 109.50000 418.400000
6522 13056 6746 1 109.50000 418.400000
6522 13056 6747 1 109.50000 418.400000
6746 13056 6747 1 109.50000 418.400000
6748 13057 6749 1 109.50000 418.400000
6748 13057 6750 1 109.50000 418.400000
6748 13057 6751 1 109.50000 418.400000
6749 13057 6750 1 109.50000 418.400000
6749 13057 6751 1 109.50000 418.400000
6750 13057 6751 1 109.50000 418.400000
6752 13058 6753 1 109.50000 418.400000
6752 13058 6754 1 109.50000 418.400000
6752 13058 6755 1 109.50000 418.400000
6753 13058 6754 1 109.50000 418.400000
6753 13058 6755 1 109.50000 418.400000
6754 13058 6755 1 109.50000 418.400000
5390 13059 5765 1 109.50000 418.400000
5390 13059 6758 1 109.50000 418.400000
5390 13059 10518 1 109.50000 418.400000
5765 13059 6758 1 109.50000 418.400000
5765 13059 10518 1 109.50000 418.400000
6758 13059 10518 1 109.50000 418.400000
4778 13060 6759 1 109.50000 418.400000
4778 13060 6760 1 109.50000 418.400000
4778 13060 6761 1 109.50000 418.400000
6759 13060 6760 1 109.50000 418.400000
6759 13060 6761 1 109.50000 418.400000
6760 13060 6761 1 109.50000 418.400000
4128 13061 6764 1 109.50000 418.400000
4128 13061 7358 1 109.50000 418.400000
4128 13061 7359 1 109.50000 418.400000
6764 13061 7358 1 109.50000 418.400000
6764 13061 7359 1 109.50000 418.400000
7358 13061 7359 1 109.50000 418.400000
5916 13062 6766 1 109.50000 418.400000
5916 13062 6767 1 109.50000 418.400000
5916 13062 7446 1 109.50000 418.400000
6766 13062 6767 1 109.50000 418.400000
6766 13062 7446 1 109.50000 418.400000
6767 13062 7446 1 109.50000 418.400000
5986 13063 6768 1 109.50000 418.400000
5986 13063 6769 1 109.50000 418.400000
5986 13063 6770 1 109.50000 418.400000
6768 13063 6769 1 109.50000 418.400000
6768 13063 6770 1 109.50000 418.400000
6769 13063 6770 1 109.50000 418.400000
3342 13064 6771 1 109.50000 418.400000
3342 13064 6772 1 109.50000 418.400000
3342 13064 6773 1 109.50000 418.400000
6771 13064 6772 1 109.50000 418.400000
6771 13064 6773 1 109.50000 418.400000
6772 13064 6773 1 109.50000 418.400000
2553 13065 6774 1 109.50000 418.400000
2553 13065 6775 1 109.50000 418.400000
2553 13065 6776 1 109.50000 418.400000
6774 13065 6775 1 109.50000 418.400000
6774 13065 6776 1 109.50000 418.400000
6775 13065 6776 1 109.50000 418.400000
6398 13066 6400 1 109.50000 418.400000
6398 13066 6777 1 109.50000 418.400000
6398 13066 6779 1 109.50000 418.400000
6400 13066 6777 1 109.50000 418.400000
6400 13066 6779 1 109.50000 418.400000
6777 13066 6779 1 109.50000 418.400000
2134 13067 3702 1 109.50000 418.400000
2134 13067 6781 1 109.50000 418.400000
2134 13067 6782 1 109.50000 418.400000
3702 13067 6781 1 109.50000 418.400000
3702 13067 6782 1 109.50000 418.400000
6781 13067 6782 1 109.50000 418.400000
838 13068 6783 1 109.50000 418.400000
838 13068 6784 1 109.50000 418.400000
838 13068 11201 1 109.50000 418.400000
6783 13068 6784 1 109.50000 418.400000
6783 13068 11201 1 109.50000 418.400000
6784 13068 11201 1 109.50000 418.400000
2625 13069 2627 1 109.50000 418.400000
2625 13069 6786 1 109.50000 418.400000
2625 13069 7373 1 109.50000 418.400000
2627 13069 6786 1 109.50000 418.400000
2627 13069 7373 1 109.50000 418.400000
6786 13069 7373 1 109.50000 418.400000
4569 13070 6788 1 109.50000 418.400000
4569 13070 6789 1 109.50000 418.400000
4569 13070 6790 1 109.50000 418.400000
6788 13070 6789 1 109.50000 418.400000
6788 13070 6790 1 109.50000 418.400000
6789 13070 6790 1 109.50000 418.400000
2948 13071 6791 1 109.50000 418.400000
2948 13071 6792 1 109.50000 418.400000
2948 13071 6793 1 109.50000 418.400000
6791 13071 6792 1 109.50000 418.400000
6791 13071 6793 1 109.50000 418.400000
6792 13071 6793 1 109.50000 418.400000
3712 13072 3714 1 109.50000 418.400000
3712 13072 3957 1 109.50000 418.400000
3712 13072 6795 1 109.50000 418.400000
3714 13072 3957 1 109.50000 418.400000
3714 13072 6795 1 109.50000 418.400000
3957 13072 6795 1 109.50000 418.400000
1633 13073 5232 1 109.50000 418.400000
1633 13073 6796 1 109.50000 418.400000
1633 13073 6797 1 109.50000 418.400000
5232 13073 6796 1 109.50000 418.400000
5232 13073 6797 1 109.50000 418.400000
6796 13073 6797 1 109.50000 418.400000
5051 13074 6798 1 109.50000 418.400000
5051 13074 6799 1 109.50000 418.400000
5051 13074 6800 1 109.50000 418.400000
6798 13074 6799 1 109.50000 418.400000
6798 13074 6800 1 109.50000 418.400000
6799 13074 6800 1 109.50000 418.400000
3294 13075 6801 1 109.50000 418.400000
3294 13075 6802 1 109.50000 418.400000
3294 13075 6803 1 109.50000 418.400000
6801 13075 6802 1 109.50000 418.400000
6801 13075 6803 1 109.50000 418.400000
6802 13075 6803 1 109.50000 418.400000
5917 13076 6804 1 109.50000 418.400000
5917 13076 6805 1 109.50000 418.400000
5917 13076 6806 1 109.50000 418.400000
6804 13076 6805 1 109.50000 418.400000
6804 13076 6806 1 109.50000 418.400000
6805 13076 6806 1 109.50000 418.400000
1693 13077 6807 1 109.50000 418.400000
1693 13077 6808 1 109.50000 418.400000
1693 13077 6809 1 109.50000 418.400000
6807 13077 6808 1 109.50000 418.400000
6807 13077 6809 1 109.50000 418.400000
6808 13077 6809 1 109.50000 418.400000
584 13078 3572 1 109.50000 418.400000
584 13078 3884 1 109.50000 418.400000
584 13078 5351 1 109.50000 418.400000
3572 13078 3884 1 109.50000 418.400000
3572 13078 5351 1 109.50000 418.400000
3884 13078 5351 1 109.50000 418.400000
3151 13079 4152 1 109.50000 418.400000
3151 13079 6349 1 109.50000 418.400000
3151 13079 6811 1 109.50000 418.400000
4152 13079 6349 1 109.50000 418.400000
4152 13079 6811 1 109.50000 418.400000
6349 13079 6811 1 109.50000 418.400000
3487 13080 4189 1 109.50000 418.400000
3487 13080 6423 1 109.50000 418.400000
3487 13080 6812 1 109.50000 418.400000
4189 13080 6423 1 109.50000 418.400000
4189 13080 6812 1 109.50000 418.400000
6423 13080 6812 1 109.50000 418.400000
935 13081 3522 1 109.50000 418.400000
935 13081 6813 1 109.50000 418.400000
935 13081 6814 1 109.50000 418.400000
3522 13081 6813 1 109.50000 418.400000
3522 13081 6814 1 109.50000 418.400000
6813 13081 6814 1 109.50000 418.400000
3474 13082 3873 1 109.50000 418.400000
3474 13082 6815 1 109.50000 418.400000
3474 13082 6816 1 109.50000 418.400000
3873 13082 6815 1 109.50000 418.400000
3873 13082 6816 1 109.50000 418.400000
6815 13082 6816 1 109.50000 418.400000
4104 13083 6354 1 109.50000 418.400000
4104 13083 6817 1 109.50000 418.400000
4104 13083 6818 1 109.50000 418.400000
6354 13083 6817 1 109.50000 418.400000
6354 13083 6818 1 109.50000 418.400000
6817 13083 6818 1 109.50000 418.400000
6819 13084 6820 1 109.50000 418.400000
6819 13084 6821 1 109.50000 418.400000
6819 13084 6822 1 109.50000 418.400000
6820 13084 6821 1 109.50000 418.400000
6820 13084 6822 1 109.50000 418.400000
6821 13084 6822 1 109.50000 418.400000
1289 13085 1648 1 109.50000 418.400000
1289 13085 3480 1 109.50000 418.400000
1289 13085 3577 1 109.50000 418.400000
1648 13085 3480 1 109.50000 418.400000
1648 13085 3577 1 109.50000 418.400000
3480 13085 3577 1 109.50000 418.400000
5229 13086 6825 1 109.50000 418.400000
5229 13086 6826 1 109.50000 418.400000
5229 13086 6827 1 109.50000 418.400000
6825 13086 6826 1 109.50000 418.400000
6825 13086 6827 1 109.50000 418.400000
6826 13086 6827 1 109.50000 418.400000
4949 13087 6828 1 109.50000 418.400000
4949 13087 6829 1 109.50000 418.400000
4949 13087 6830 1 109.50000 418.400000
6828 13087 6829 1 109.50000 418.400000
6828 13087 6830 1 109.50000 418.400000
6829 13087 6830 1 109.50000 418.400000
478 13088 3146 1 109.50000 418.400000
478 13088 6831 1 109.50000 418.400000
478 13088 6832 1 109.50000 418.400000
3146 13088 6831 1 109.50000 418.400000
3146 13088 6832 1 109.50000 418.400000
6831 13088 6832 1 109.50000 418.400000
5824 13089 6502 1 109.50000 418.400000
5824 13089 6833 1 109.50000 418.400000
5824 13089 6834 1 109.50000 418.400000
6502 13089 6833 1 109.50000 418.400000
6502 13089 6834 1 109.50000 418.400000
6833 13089 6834 1 109.50000 418.400000
6214 13090 6835 1 109.50000 418.400000
6214 13090 6837 1 109.50000 418.400000
6214 13090 7878 1 109.50000 418.400000
6835 13090 6837 1 109.50000 418.400000
6835 13090 7878 1 109.50000 418.400000
6837 13090 7878 1 109.50000 418.400000
716 13091 2640 1 109.50000 418.400000
716 13091 6838 1 109.50000 418.400000
716 13091 6839 1 109.50000 418.400000
2640 13091 6838 1 109.50000 418.400000
2640 13091 6839 1 109.50000 418.400000
6838 13091 6839 1 109.50000 418.400000
2171 13092 2984 1 109.50000 418.400000
2171 13092 3859 1 109.50000 418.400000
2171 13092 6840 1 109.50000 418.400000
2984 13092 3859 1 109.50000 418.400000
2984 13092 6840 1 109.50000 418.400000
3859 13092 6840 1 109.50000 418.400000
993 13093 6802 1 109.50000 418.400000
993 13093 6841 1 109.50000 418.400000
993 13093 6842 1 109.50000 418.400000
6802 13093 6841 1 109.50000 418.400000
6802 13093 6842 1 109.50000 418.400000
6841 13093 6842 1 109.50000 418.400000
4297 13094 5407 1 109.50000 418.400000
4297 13094 6843 1 109.50000 418.400000
4297 13094 6844 1 109.50000 418.400000
5407 13094 6843 1 109.50000 418.400000
5407 13094 6844 1 109.50000 418.400000
6843 13094 6844 1 109.50000 418.400000
6845 13095 6846 1 109.50000 418.400000
6845 13095 6847 1 109.50000 418.400000
6845 13095 6848 1 109.50000 418.400000
6846 13095 6847 1 109.50000 418.400000
6846 13095 6848 1 109.50000 418.400000
6847 13095 6848 1 109.50000 418.400000
3871 13096 6849 1 109.50000 418.400000
3871 13096 6850 1 109.50000 418.400000
3871 13096 6851 1 109.50000 418.400000
6849 13096 6850 1 109.50000 418.400000
6849 13096 6851 1 109.50000 418.400000
6850 13096 6851 1 109.50000 418.400000
1981 13097 3762 1 109.50000 418.400000
1981 13097 6852 1 109.50000 418.400000
1981 13097 6853 1 109.50000 418.400000
3762 13097 6852 1 109.50000 418.400000
3762 13097 6853 1 109.50000 418.400000
6852 13097 6853 1 109.50000 418.400000
3379 13098 4995 1 109.50000 418.400000
3379 13098 6854 1 109.50000 418.400000
3379 13098 6855 1 109.50000 418.400000
4995 13098 6854 1 109.50000 418.400000
4995 13098 6855 1 109.50000 418.400000
6854 13098 6855 1 109.50000 418.400000
6856 13099 6857 1 109.50000 418.400000
6856 13099 6858 1 109.50000 418.400000
6856 13099 6859 1 109.50000 418.400000
6857 13099 6858 1 109.50000 418.400000
6857 13099 6859 1 109.50000 418.400000
6858 13099 6859 1 109.50000 418.400000
3289 13100 3937 1 109.50000 418.400000
3289 13100 6860 1 109.50000 418.400000
3289 13100 6862 1 109.50000 418.400000
3937 13100 6860 1 109.50000 418.400000
3937 13100 6862 1 109.50000 418.400000
6860 13100 6862 1 109.50000 418.400000
2575 13101 2600 1 109.50000 418.400000
2575 13101 6188 1 109.50000 418.400000
2575 13101 6863 1 109.50000 418.400000
2600 13101 6188 1 109.50000 418.400000
2600 13101 6863 1 109.50000 418.400000
6188 13101 6863 1 109.50000 418.400000
4228 13102 6864 1 109.50000 418.400000
4228 13102 6865 1 109.50000 418.400000
4228 13102 6866 1 109.50000 418.400000
6864 13102 6865 1 109.50000 418.400000
6864 13102 6866 1 109.50000 418.400000
6865 13102 6866 1 109.50000 418.400000
711 13103 6868 1 109.50000 418.400000
711 13103 6869 1 109.50000 418.400000
711 13103 8735 1 109.50000 418.400000
6868 13103 6869 1 109.50000 418.400000
6868 13103 8735 1 109.50000 418.400000
6869 13103 8735 1 109.50000 418.400000
4859 13104 5202 1 109.50000 418.400000
4859 13104 6870 1 109.50000 418.400000
4859 13104 6871 1 109.50000 418.400000
5202 13104 6870 1 109.50000 418.400000
5202 13104 6871 1 109.50000 418.400000
6870 13104 6871 1 109.50000 418.400000
5408 13105 6872 1 109.50000 418.400000
5408 13105 6873 1 109.50000 418.400000
5408 13105 6874 1 109.50000 418.400000
6872 13105 6873 1 109.50000 418.400000
6872 13105 6874 1 109.50000 418.400000
6873 13105 6874 1 109.50000 418.400000
1888 13106 6875 1 109.50000 418.400000
1888 13106 6876 1 109.50000 418.400000
1888 13106 6877 1 109.50000 418.400000
6875 13106 6876 1 109.50000 418.400000
6875 13106 6877 1 109.50000 418.400000
6876 13106 6877 1 109.50000 418.400000
3199 13107 3273 1 109.50000 418.400000
3199 13107 6878 1 109.50000 418.400000
3199 13107 6879 1 109.50000 418.400000
3273 13107 6878 1 109.50000 418.400000
3273 13107 6879 1 109.50000 418.400000
6878 13107 6879 1 109.50000 418.400000
6020 13108 6880 1 109.50000 418.400000
6020 13108 6881 1 109.50000 418.400000
6020 13108 6882 1 109.50000 418.400000
6880 13108 6881 1 109.50000 418.400000
6880 13108 6882 1 109.50000 418.400000
6881 13108 6882 1 109.50000 418.400000
2781 13109 6544 1 109.50000 418.400000
2781 13109 6883 1 109.50000 418.400000
2781 13109 6884 1 109.50000 418.400000
6544 13109 6883 1 109.50000 418.400000
6544 13109 6884 1 109.50000 418.400000
6883 13109 6884 1 109.50000 418.400000
462 13110 3890 1 109.50000 418.400000
462 13110 6885 1 109.50000 418.400000
462 13110 6886 1 109.50000 418.400000
3890 13110 6885 1 109.50000 418.400000
3890 13110 6886 1 109.50000 418.400000
6885 13110 6886 1 109.50000 418.400000
1391 13111 3797 1 109.50000 418.400000
1391 13111 3867 1 109.50000 418.400000
1391 13111 6887 1 109.50000 418.400000
3797 13111 3867 1 109.50000 418.400000
3797 13111 6887 1 109.50000 418.400000
3867 13111 6887 1 109.50000 418.400000
1315 13112 1473 1 109.50000 418.400000
1315 13112 4526 1 109.50000 418.400000
1315 13112 6888 1 109.50000 418.400000
1473 13112 4526 1 109.50000 418.400000
1473 13112 6888 1 109.50000 418.400000
4526 13112 6888 1 109.50000 418.400000
3371 13113 6889 1 109.50000 418.400000
3371 13113 6890 1 109.50000 418.400000
3371 13113 6961 1 109.50000 418.400000
6889 13113 6890 1 109.50000 418.400000
6889 13113 6961 1 109.50000 418.400000
6890 13113 6961 1 109.50000 418.400000
2554 13114 5964 1 109.50000 418.400000
2554 13114 6891 1 109.50000 418.400000
2554 13114 6892 1 109.50000 418.400000
5964 13114 6891 1 109.50000 418.400000
5964 13114 6892 1 109.50000 418.400000
6891 13114 6892 1 109.50000 418.400000
3012 13115 3719 1 109.50000 418.400000
3012 13115 6893 1 109.50000 418.400000
3012 13115 6894 1 109.50000 418.400000
3719 13115 6893 1 109.50000 418.400000
3719 13115 6894 1 109.50000 418.400000
6893 13115 6894 1 109.50000 418.400000
6895 13116 6896 1 109.50000 418.400000
6895 13116 6898 1 109.50000 418.400000
6895 13116 10480 1 109.50000 418.400000
6896 13116 6898 1 109.50000 418.400000
6896 13116 10480 1 109.50000 418.400000
6898 13116 10480 1 109.50000 418.400000
5922 13117 6902 1 109.50000 418.400000
5922 13117 6903 1 109.50000 418.400000
5922 13117 6904 1 109.50000 418.400000
6902 13117 6903 1 109.50000 418.400000
6902 13117 6904 1 109.50000 418.400000
6903 13117 6904 1 109.50000 418.400000
3181 13118 4359 1 109.50000 418.400000
3181 13118 5431 1 109.50000 418.400000
3181 13118 6905 1 109.50000 418.400000
4359 13118 5431 1 109.50000 418.400000
4359 13118 6905 1 109.50000 418.400000
5431 13118 6905 1 109.50000 418.400000
6906 13119 6907 1 109.50000 418.400000
6906 13119 6908 1 109.50000 418.400000
6906 13119 6909 1 109.50000 418.400000
6907 13119 6908 1 109.50000 418.400000
6907 13119 6909 1 109.50000 418.400000
6908 13119 6909 1 109.50000 418.400000
3330 13120 5739 1 109.50000 418.400000
3330 13120 6697 1 109.50000 418.400000
3330 13120 6910 1 109.50000 418.400000
5739 13120 6697 1 109.50000 418.400000
5739 13120 6910 1 109.50000 418.400000
6697 13120 6910 1 109.50000 418.400000
4895 13121 6368 1 109.50000 418.400000
4895 13121 6911 1 109.50000 418.400000
4895 13121 6912 1 109.50000 418.400000
6368 13121 6911 1 109.50000 418.400000
6368 13121 6912 1 109.50000 418.400000
6911 13121 6912 1 109.50000 418.400000
2029 13122 6913 1 109.50000 418.400000
2029 13122 6914 1 109.50000 418.400000
2029 13122 6915 1 109.50000 418.400000
6913 13122 6914 1 109.50000 418.400000
6913 13122 6915 1 109.50000 418.400000
6914 13122 6915 1 109.50000 418.400000
6476 13123 6918 1 109.50000 418.400000
6476 13123 6919 1 109.50000 418.400000
6476 13123 6920 1 109.50000 418.400000
6918 13123 6919 1 109.50000 418.400000
6918 13123 6920 1 109.50000 418.400000
6919 13123 6920 1 109.50000 418.400000
6202 13124 6922 1 109.50000 418.400000
6202 13124 6923 1 109.50000 418.400000
6202 13124 7506 1 109.50000 418.400000
6922 13124 6923 1 109.50000 418.400000
6922 13124 7506 1 109.50000 418.400000
6923 13124 7506 1 109.50000 418.400000
391 13125 2238 1 109.50000 418.400000
391 13125 3325 1 109.50000 418.400000
391 13125 6925 1 109.50000 418.400000
2238 13125 3325 1 109.50000 418.400000
2238 13125 6925 1 109.50000 418.400000
3325 13125 6925 1 109.50000 418.400000
4609 13126 6927 1 109.50000 418.400000
4609 13126 6928 1 109.50000 418.400000
4609 13126 6929 1 109.50000 418.400000
6927 13126 6928 1 109.50000 418.400000
6927 13126 6929 1 109.50000 418.400000
6928 13126 6929 1 109.50000 418.400000
1163 13127 2229 1 109.50000 418.400000
1163 13127 2661 1 109.50000 418.400000
1163 13127 6930 1 109.50000 418.400000
2229 13127 2661 1 109.50000 418.400000
2229 13127 6930 1 109.50000 418.400000
2661 13127 6930 1 109.50000 418.400000
2278 13128 6831 1 109.50000 418.400000
2278 13128 6933 1 109.50000 418.400000
2278 13128 6934 1 109.50000 418.400000
6831 13128 6933 1 109.50000 418.400000
6831 13128 6934 1 109.50000 418.400000
6933 13128 6934 1 109.50000 418.400000
5716 13129 6935 1 109.50000 418.400000
5716 13129 6936 1 109.50000 418.400000
5716 13129 6937 1 109.50000 418.400000
6935 13129 6936 1 109.50000 418.400000
6935 13129 6937 1 109.50000 418.400000
6936 13129 6937 1 109.50000 418.400000
6655 13130 6938 1 109.50000 418.400000
6655 13130 6939 1 109.50000 418.400000
6655 13130 6940 1 109.50000 418.400000
6938 13130 6939 1 109.50000 418.400000
6938 13130 6940 1 109.50000 418.400000
6939 13130 6940 1 109.50000 418.400000
2645 13131 6941 1 109.50000 418.400000
2645 13131 6942 1 109.50000 418.400000
2645 13131 6943 1 109.50000 418.400000
6941 13131 6942 1 109.50000 418.400000
6941 13131 6943 1 109.50000 418.400000
6942 13131 6943 1 109.50000 418.400000
5433 13132 5878 1 109.50000 418.400000
5433 13132 6944 1 109.50000 418.400000
5433 13132 6945 1 109.50000 418.400000
5878 13132 6944 1 109.50000 418.400000
5878 13132 6945 1 109.50000 418.400000
6944 13132 6945 1 109.50000 418.400000
3852 13133 5201 1 109.50000 418.400000
3852 13133 6946 1 109.50000 418.400000
3852 13133 6947 1 109.50000 418.400000
5201 13133 6946 1 109.50000 418.400000
5201 13133 6947 1 109.50000 418.400000
6946 13133 6947 1 109.50000 418.400000
6951 13134 6952 1 109.50000 418.400000
6951 13134 6953 1 109.50000 418.400000
6951 13134 6954 1 109.50000 418.400000
6952 13134 6953 1 109.50000 418.400000
6952 13134 6954 1 109.50000 418.400000
6953 13134 6954 1 109.50000 418.400000
624 13135 6955 1 109.50000 418.400000
624 13135 6956 1 109.50000 418.400000
624 13135 6957 1 109.50000 418.400000
6955 13135 6956 1 109.50000 418.400000
6955 13135 6957 1 109.50000 418.400000
6956 13135 6957 1 109.50000 418.400000
2226 13136 4100 1 109.50000 418.400000
2226 13136 4101 1 109.50000 418.400000
2226 13136 6958 1 109.50000 418.400000
4100 13136 4101 1 109.50000 418.400000
4100 13136 6958 1 109.50000 418.400000
4101 13136 6958 1 109.50000 418.400000
2314 13137 2362 1 109.50000 418.400000
2314 13137 2369 1 109.50000 418.400000
2314 13137 6960 1 109.50000 418.400000
2362 13137 2369 1 109.50000 418.400000
2362 13137 6960 1 109.50000 418.400000
2369 13137 6960 1 109.50000 418.400000
2637 13138 6962 1 109.50000 418.400000
2637 13138 6963 1 109.50000 418.400000
2637 13138 7739 1 109.50000 418.400000
6962 13138 6963 1 109.50000 418.400000
6962 13138 7739 1 109.50000 418.400000
6963 13138 7739 1 109.50000 418.400000
4912 13139 6966 1 109.50000 418.400000
4912 13139 6967 1 109.50000 418.400000
4912 13139 8893 1 109.50000 418.400000
6966 13139 6967 1 109.50000 418.400000
6966 13139 8893 1 109.50000 418.400000
6967 13139 8893 1 109.50000 418.400000
1829 13140 4922 1 109.50000 418.400000
1829 13140 5163 1 109.50000 418.400000
1829 13140 6968 1 109.50000 418.400000
4922 13140 5163 1 109.50000 418.400000
4922 13140 6968 1 109.50000 418.400000
5163 13140 6968 1 109.50000 418.400000
2510 13141 3728 1 109.50000 418.400000
2510 13141 3729 1 109.50000 418.400000
2510 13141 6970 1 109.50000 418.400000
3728 13141 3729 1 109.50000 418.400000
3728 13141 6970 1 109.50000 418.400000
3729 13141 6970 1 109.50000 418.400000
1723 13142 6972 1 109.50000 418.400000
1723 13142 6973 1 109.50000 418.400000
1723 13142 6974 1 109.50000 418.400000
6972 13142 6973 1 109.50000 418.400000
6972 13142 6974 1 109.50000 418.400000
6973 13142 6974 1 109.50000 418.400000
6096 13143 6975 1 109.50000 418.400000
6096 13143 6976 1 109.50000 418.400000
6096 13143 6977 1 109.50000 418.400000
6975 13143 6976 1 109.50000 418.400000
6975 13143 6977 1 109.50000 418.400000
6976 13143 6977 1 109.50000 418.400000
5802 13144 6979 1 109.50000 418.400000
5802 13144 6980 1 109.50000 418.400000
5802 13144 6981 1 109.50000 418.400000
6979 13144 6980 1 109.50000 418.400000
6979 13144 6981 1 109.50000 418.400000
6980 13144 6981 1 109.50000 418.400000
5422 13145 6527 1 109.50000 418.400000
5422 13145 6982 1 109.50000 418.400000
5422 13145 6983 1 109.50000 418.400000
6527 13145 6982 1 109.50000 418.400000
6527 13145 6983 1 109.50000 418.400000
6982 13145 6983 1 109.50000 418.400000
2728 13146 6984 1 109.50000 418.400000
2728 13146 6985 1 109.50000 418.400000
2728 13146 6986 1 109.50000 418.400000
6984 13146 6985 1 109.50000 418.400000
6984 13146 6986 1 109.50000 418.400000
6985 13146 6986 1 109.50000 418.400000
2470 13147 6987 1 109.50000 418.400000
2470 13147 6988 1 109.50000 418.400000
2470 13147 10625 1 109.50000 418.400000
6987 13147 6988 1 109.50000 418.400000
6987 13147 10625 1 109.50000 418.400000
6988 13147 10625 1 109.50000 418.400000
5485 13148 6676 1 109.50000 418.400000
5485 13148 6989 1 109.50000 418.400000
5485 13148 6990 1 109.50000 418.400000
6676 13148 6989 1 109.50000 418.400000
6676 13148 6990 1 109.50000 418.400000
6989 13148 6990 1 109.50000 418.400000
1085 13149 2907 1 109.50000 418.400000
1085 13149 6991 1 109.50000 418.400000
1085 13149 6992 1 109.50000 418.400000
2907 13149 6991 1 109.50000 418.400000
2907 13149 6992 1 109.50000 418.400000
6991 13149 6992 1 109.50000 418.400000
573 13150 2760 1 109.50000 418.400000
573 13150 6993 1 109.50000 418.400000
573 13150 6994 1 109.50000 418.400000
2760 13150 6993 1 109.50000 418.400000
2760 13150 6994 1 109.50000 418.400000
6993 13150 6994 1 109.50000 418.400000
4036 13151 4254 1 109.50000 418.400000
4036 13151 6995 1 109.50000 418.400000
4036 13151 6996 1 109.50000 418.400000
4254 13151 6995 1 109.50000 418.400000
4254 13151 6996 1 109.50000 418.400000
6995 13151 6996 1 109.50000 418.400000
1688 13152 2617 1 109.50000 418.400000
1688 13152 6691 1 109.50000 418.400000
1688 13152 6997 1 109.50000 418.400000
2617 13152 6691 1 109.50000 418.400000
2617 13152 6997 1 109.50000 418.400000
6691 13152 6997 1 109.50000 418.400000
228 13153 3445 1 109.50000 418.400000
228 13153 6998 1 109.50000 418.400000
228 13153 6999 1 109.50000 418.400000
3445 13153 6998 1 109.50000 418.400000
3445 13153 6999 1 109.50000 418.400000
6998 13153 6999 1 109.50000 418.400000
172 13154 2673 1 109.50000 418.400000
172 13154 5088 1 109.50000 418.400000
172 13154 7000 1 109.50000 418.400000
2673 13154 5088 1 109.50000 418.400000
2673 13154 7000 1 109.50000 418.400000
5088 13154 7000 1 109.50000 418.400000
510 13155 3268 1 109.50000 418.400000
510 13155 6257 1 109.50000 418.400000
510 13155 7002 1 109.50000 418.400000
3268 13155 6257 1 109.50000 418.400000
3268 13155 7002 1 109.50000 418.400000
6257 13155 7002 1 109.50000 418.400000
2660 13156 7003 1 109.50000 418.400000
2660 13156 7004 1 109.50000 418.400000
2660 13156 7005 1 109.50000 418.400000
7003 13156 7004 1 109.50000 418.400000
7003 13156 7005 1 109.50000 418.400000
7004 13156 7005 1 109.50000 418.400000
4630 13157 5386 1 109.50000 418.400000
4630 13157 6732 1 109.50000 418.400000
4630 13157 7006 1 109.50000 418.400000
5386 13157 6732 1 109.50000 418.400000
5386 13157 7006 1 109.50000 418.400000
6732 13157 7006 1 109.50000 418.400000
5710 13158 7007 1 109.50000 418.400000
5710 13158 7008 1 109.50000 418.400000
5710 13158 7009 1 109.50000 418.400000
7007 13158 7008 1 109.50000 418.400000
7007 13158 7009 1 109.50000 418.400000
7008 13158 7009 1 109.50000 418.400000
1822 13159 7010 1 109.50000 418.400000
1822 13159 7011 1 109.50000 418.400000
1822 13159 7012 1 109.50000 418.400000
7010 13159 7011 1 109.50000 418.400000
7010 13159 7012 1 109.50000 418.400000
7011 13159 7012 1 109.50000 418.400000
7013 13160 7014 1 109.50000 418.400000
7013 13160 7015 1 109.50000 418.400000
7013 13160 7016 1 109.50000 418.400000
7014 13160 7015 1 109.50000 418.400000
7014 13160 7016 1 109.50000 418.400000
7015 13160 7016 1 109.50000 418.400000
2319 13161 4412 1 109.50000 418.400000
2319 13161 7017 1 109.50000 418.400000
2319 13161 7018 1 109.50000 418.400000
4412 13161 7017 1 109.50000 418.400000
4412 13161 7018 1 109.50000 418.400000
7017 13161 7018 1 109.50000 418.400000
164 13162 7021 1 109.50000 418.400000
164 13162 7022 1 109.50000 418.400000
164 13162 7023 1 109.50000 418.400000
7021 13162 7022 1 109.50000 418.400000
7021 13162 7023 1 109.50000 418.400000
7022 13162 7023 1 109.50000 418.400000
7024 13163 7025 1 109.50000 418.400000
7024 13163 7026 1 109.50000 418.400000
7024 13163 7027 1 109.50000 418.400000
7025 13163 7026 1 109.50000 418.400000
7025 13163 7027 1 109.50000 418.400000
7026 13163 7027 1 109.50000 418.400000
7028 13164 7029 1 109.50000 418.400000
7028 13164 7030 1 109.50000 418.400000
7028 13164 7031 1 109.50000 418.400000
7029 13164 7030 1 109.50000 418.400000
7029 13164 7031 1 109.50000 418.400000
7030 13164 7031 1 109.50000 418.400000
707 13165 7032 1 109.50000 418.400000
707 13165 7033 1 109.50000 418.400000
707 13165 7034 1 109.50000 418.400000
7032 13165 7033 1 109.50000 418.400000
7032 13165 7034 1 109.50000 418.400000
7033 13165 7034 1 109.50000 418.400000
1111 13166 7035 1 109.50000 418.400000
1111 13166 7036 1 109.50000 418.400000
1111 13166 7037 1 109.50000 418.400000
7035 13166 7036 1 109.50000 418.400000
7035 13166 7037 1 109.50000 418.400000
7036 13166 7037 1 109.50000 418.400000
7038 13167 7039 1 109.50000 418.400000
7038 13167 7040 1 109.50000 418.400000
7038 13167 7041 1 109.50000 418.400000
7039 13167 7040 1 109.50000 418.400000
7039 13167 7041 1 109.50000 418.400000
7040 13167 7041 1 109.50000 418.400000
4093 13168 5973 1 109.50000 418.400000
4093 13168 7042 1 109.50000 418.400000
4093 13168 7043 1 109.50000 418.400000
5973 13168 7042 1 109.50000 418.400000
5973 13168 7043 1 109.50000 418.400000
7042 13168 7043 1 109.50000 418.400000
2647 13169 7044 1 109.50000 418.400000
2647 13169 7045 1 109.50000 418.400000
2647 13169 7046 1 109.50000 418.400000
7044 13169 7045 1 109.50000 418.400000
7044 13169 7046 1 109.50000 418.400000
7045 13169 7046 1 109.50000 418.400000
7047 13170 7048 1 109.50000 418.400000
7047 13170 7049 1 109.50000 418.400000
7047 13170 7050 1 109.50000 418.400000
7048 13170 7049 1 109.50000 418.400000
7048 13170 7050 1 109.50000 418.400000
7049 13170 7050 1 109.50000 418.400000
279 13171 2122 1 109.50000 418.400000
279 13171 2680 1 109.50000 418.400000
279 13171 7051 1 109.50000 418.400000
2122 13171 2680 1 109.50000 418.400000
2122 13171 7051 1 109.50000 418.400000
2680 13171 7051 1 109.50000 418.400000
3647 13172 5530 1 109.50000 418.400000
3647 13172 7053 1 109.50000 418.400000
3647 13172 7054 1 109.50000 418.400000
5530 13172 7053 1 109.50000 418.400000
5530 13172 7054 1 109.50000 418.400000
7053 13172 7054 1 109.50000 418.400000
1657 13173 1923 1 109.50000 418.400000
1657 13173 2105 1 109.50000 418.400000
1657 13173 7055 1 109.50000 418.400000
1923 13173 2105 1 109.50000 418.400000
1923 13173 7055 1 109.50000 418.400000
2105 13173 7055 1 109.50000 418.400000
157 13174 6678 1 109.50000 418.400000
157 13174 7056 1 109.50000 418.400000
157 13174 7057 1 109.50000 418.400000
6678 13174 7056 1 109.50000 418.400000
6678 13174 7057 1 109.50000 418.400000
7056 13174 7057 1 109.50000 418.400000
4498 13175 7058 1 109.50000 418.400000
4498 13175 7059 1 109.50000 418.400000
4498 13175 7060 1 109.50000 418.400000
7058 13175 7059 1 109.50000 418.400000
7058 13175 7060 1 109.50000 418.400000
7059 13175 7060 1 109.50000 418.400000
7061 13176 7062 1 109.50000 418.400000
7061 13176 7064 1 109.50000 418.400000
7061 13176 9061 1 109.50000 418.400000
7062 13176 7064 1 109.50000 418.400000
7062 13176 9061 1 109.50000 418.400000
7064 13176 9061 1 109.50000 418.400000
7067 13177 7068 1 109.50000 418.400000
7067 13177 7069 1 109.50000 418.400000
7067 13177 7070 1 109.50000 418.400000
7068 13177 7069 1 109.50000 418.400000
7068 13177 7070 1 109.50000 418.400000
7069 13177 7070 1 109.50000 418.400000
5443 13178 7071 1 109.50000 418.400000
5443 13178 7072 1 109.50000 418.400000
5443 13178 7073 1 109.50000 418.400000
7071 13178 7072 1 109.50000 418.400000
7071 13178 7073 1 109.50000 418.400000
7072 13178 7073 1 109.50000 418.400000
2551 13179 7074 1 109.50000 418.400000
2551 13179 7075 1 109.50000 418.400000
2551 13179 7076 1 109.50000 418.400000
7074 13179 7075 1 109.50000 418.400000
7074 13179 7076 1 109.50000 418.400000
7075 13179 7076 1 109.50000 418.400000
2260 13180 6065 1 109.50000 418.400000
2260 13180 7077 1 109.50000 418.400000
2260 13180 7078 1 109.50000 418.400000
6065 13180 7077 1 109.50000 418.400000
6065 13180 7078 1 109.50000 418.400000
7077 13180 7078 1 109.50000 418.400000
7079 13181 7080 1 109.50000 418.400000
7079 13181 7081 1 109.50000 418.400000
7079 13181 9335 1 109.50000 418.400000
7080 13181 7081 1 109.50000 418.400000
7080 13181 9335 1 109.50000 418.400000
7081 13181 9335 1 109.50000 418.400000
959 13182 3400 1 109.50000 418.400000
959 13182 7083 1 109.50000 418.400000
959 13182 7084 1 109.50000 418.400000
3400 13182 7083 1 109.50000 418.400000
3400 13182 7084 1 109.50000 418.400000
7083 13182 7084 1 109.50000 418.400000
4366 13183 6395 1 109.50000 418.400000
4366 13183 7085 1 109.50000 418.400000
4366 13183 7086 1 109.50000 418.400000
6395 13183 7085 1 109.50000 418.400000
6395 13183 7086 1 109.50000 418.400000
7085 13183 7086 1 109.50000 418.400000
5589 13184 7087 1 109.50000 418.400000
5589 13184 7088 1 109.50000 418.400000
5589 13184 7089 1 109.50000 418.400000
7087 13184 7088 1 109.50000 418.400000
7087 13184 7089 1 109.50000 418.400000
7088 13184 7089 1 109.50000 418.400000
7090 13185 7092 1 109.50000 418.400000
7090 13185 7093 1 109.50000 418.400000
7090 13185 9130 1 109.50000 418.400000
7092 13185 7093 1 109.50000 418.400000
7092 13185 9130 1 109.50000 418.400000
7093 13185 9130 1 109.50000 418.400000
243 13186 3387 1 109.50000 418.400000
243 13186 6097 1 109.50000 418.400000
243 13186 7094 1 109.50000 418.400000
3387 13186 6097 1 109.50000 418.400000
3387 13186 7094 1 109.50000 418.400000
6097 13186 7094 1 109.50000 418.400000
2149 13187 7095 1 109.50000 418.400000
2149 13187 7096 1 109.50000 418.400000
2149 13187 7097 1 109.50000 418.400000
7095 13187 7096 1 109.50000 418.400000
7095 13187 7097 1 109.50000 418.400000
7096 13187 7097 1 109.50000 418.400000
5136 13188 6810 1 109.50000 418.400000
5136 13188 7099 1 109.50000 418.400000
5136 13188 7100 1 109.50000 418.400000
6810 13188 7099 1 109.50000 418.400000
6810 13188 7100 1 109.50000 418.400000
7099 13188 7100 1 109.50000 418.400000
433 13189 4878 1 109.50000 418.400000
433 13189 7101 1 109.50000 418.400000
433 13189 7102 1 109.50000 418.400000
4878 13189 7101 1 109.50000 418.400000
4878 13189 7102 1 109.50000 418.400000
7101 13189 7102 1 109.50000 418.400000
2870 13190 4096 1 109.50000 418.400000
2870 13190 7103 1 109.50000 418.400000
2870 13190 7104 1 109.50000 418.400000
4096 13190 7103 1 109.50000 418.400000
4096 13190 7104 1 109.50000 418.400000
7103 13190 7104 1 109.50000 418.400000
2348 13191 7105 1 109.50000 418.400000
2348 13191 7106 1 109.50000 418.400000
2348 13191 7107 1 109.50000 418.400000
7105 13191 7106 1 109.50000 418.400000
7105 13191 7107 1 109.50000 418.400000
7106 13191 7107 1 109.50000 418.400000
7108 13192 7109 1 109.50000 418.400000
7108 13192 7110 1 109.50000 418.400000
7108 13192 7111 1 109.50000 418.400000
7109 13192 7110 1 109.50000 418.400000
7109 13192 7111 1 109.50000 418.400000
7110 13192 7111 1 109.50000 418.400000
5876 13193 7115 1 109.50000 418.400000
5876 13193 7116 1 109.50000 418.400000
5876 13193 7117 1 109.50000 418.400000
7115 13193 7116 1 109.50000 418.400000
7115 13193 7117 1 109.50000 418.400000
7116 13193 7117 1 109.50000 418.400000
3244 13194 7118 1 109.50000 418.400000
3244 13194 7119 1 109.50000 418.400000
3244 13194 7120 1 109.50000 418.400000
7118 13194 7119 1 109.50000 418.400000
7118 13194 7120 1 109.50000 418.400000
7119 13194 7120 1 109.50000 418.400000
5859 13195 7121 1 109.50000 418.400000
5859 13195 7122 1 109.50000 418.400000
5859 13195 7123 1 109.50000 418.400000
7121 13195 7122 1 109.50000 418.400000
7121 13195 7123 1 109.50000 418.400000
7122 13195 7123 1 109.50000 418.400000
5073 13196 5892 1 109.50000 418.400000
5073 13196 7124 1 109.50000 418.400000
5073 13196 7125 1 109.50000 418.400000
5892 13196 7124 1 109.50000 418.400000
5892 13196 7125 1 109.50000 418.400000
7124 13196 7125 1 109.50000 418.400000
7127 13197 7128 1 109.50000 418.400000
7127 13197 7129 1 109.50000 418.400000
7127 13197 7130 1 109.50000 418.400000
7128 13197 7129 1 109.50000 418.400000
7128 13197 7130 1 109.50000 418.400000
7129 13197 7130 1 109.50000 418.400000
1063 13198 2410 1 109.50000 418.400000
1063 13198 3578 1 109.50000 418.400000
1063 13198 7131 1 109.50000 418.400000
2410 13198 3578 1 109.50000 418.400000
2410 13198 7131 1 109.50000 418.400000
3578 13198 7131 1 109.50000 418.400000
557 13199 3503 1 109.50000 418.400000
557 13199 7133 1 109.50000 418.400000
557 13199 7134 1 109.50000 418.400000
3503 13199 7133 1 109.50000 418.400000
3503 13199 7134 1 109.50000 418.400000
7133 13199 7134 1 109.50000 418.400000
883 13200 7135 1 109.50000 418.400000
883 13200 7136 1 109.50000 418.400000
883 13200 7137 1 109.50000 418.400000
7135 13200 7136 1 109.50000 418.400000
7135 13200 7137 1 109.50000 418.400000
7136 13200 7137 1 109.50000 418.400000
3292 13201 7138 1 109.50000 418.400000
3292 13201 7139 1 109.50000 418.400000
3292 13201 7140 1 109.50000 418.400000
7138 13201 7139 1 109.50000 418.400000
7138 13201 7140 1 109.50000 418.400000
7139 13201 7140 1 109.50000 418.400000
5375 13202 5376 1 109.50000 418.400000
5375 13202 7143 1 109.50000 418.400000
5375 13202 7145 1 109.50000 418.400000
5376 13202 7143 1 109.50000 418.400000
5376 13202 7145 1 109.50000 418.400000
7143 13202 7145 1 109.50000 418.400000
5298 13203 7146 1 109.50000 418.400000
5298 13203 7147 1 109.50000 418.400000
5298 13203 7148 1 109.50000 418.400000
7146 13203 7147 1 109.50000 418.400000
7146 13203 7148 1 109.50000 418.400000
7147 13203 7148 1 109.50000 418.400000
3892 13204 7149 1 109.50000 418.400000
3892 13204 7150 1 109.50000 418.400000
3892 13204 7151 1 109.50000 418.400000
7149 13204 7150 1 109.50000 418.400000
7149 13204 7151 1 109.50000 418.400000
7150 13204 7151 1 109.50000 418.400000
2859 13205 3111 1 109.50000 418.400000
2859 13205 6204 1 109.50000 418.400000
2859 13205 7152 1 109.50000 418.400000
3111 13205 6204 1 109.50000 418.400000
3111 13205 7152 1 109.50000 418.400000
6204 13205 7152 1 109.50000 418.400000
3907 13206 7155 1 109.50000 418.400000
3907 13206 7156 1 109.50000 418.400000
3907 13206 7157 1 109.50000 418.400000
7155 13206 7156 1 109.50000 418.400000
7155 13206 7157 1 109.50000 418.400000
7156 13206 7157 1 109.50000 418.400000
7158 13207 7159 1 109.50000 418.400000
7158 13207 7160 1 109.50000 418.400000
7158 13207 7161 1 109.50000 418.400000
7159 13207 7160 1 109.50000 418.400000
7159 13207 7161 1 109.50000 418.400000
7160 13207 7161 1 109.50000 418.400000
6749 13208 7031 1 109.50000 418.400000
6749 13208 7162 1 109.50000 418.400000
6749 13208 7163 1 109.50000 418.400000
7031 13208 7162 1 109.50000 418.400000
7031 13208 7163 1 109.50000 418.400000
7162 13208 7163 1 109.50000 418.400000
2326 13209 7164 1 109.50000 418.400000
2326 13209 7165 1 109.50000 418.400000
2326 13209 7166 1 109.50000 418.400000
7164 13209 7165 1 109.50000 418.400000
7164 13209 7166 1 109.50000 418.400000
7165 13209 7166 1 109.50000 418.400000
1811 13210 3447 1 109.50000 418.400000
1811 13210 4621 1 109.50000 418.400000
1811 13210 7167 1 109.50000 418.400000
3447 13210 4621 1 109.50000 418.400000
3447 13210 7167 1 109.50000 418.400000
4621 13210 7167 1 109.50000 418.400000
2115 13211 7172 1 109.50000 418.400000
2115 13211 7173 1 109.50000 418.400000
2115 13211 7174 1 109.50000 418.400000
7172 13211 7173 1 109.50000 418.400000
7172 13211 7174 1 109.50000 418.400000
7173 13211 7174 1 109.50000 418.400000
2051 13212 7175 1 109.50000 418.400000
2051 13212 7176 1 109.50000 418.400000
2051 13212 7177 1 109.50000 418.400000
7175 13212 7176 1 109.50000 418.400000
7175 13212 7177 1 109.50000 418.400000
7176 13212 7177 1 109.50000 418.400000
1145 13213 4721 1 109.50000 418.400000
1145 13213 7178 1 109.50000 418.400000
1145 13213 7179 1 109.50000 418.400000
4721 13213 7178 1 109.50000 418.400000
4721 13213 7179 1 109.50000 418.400000
7178 13213 7179 1 109.50000 418.400000
439 13214 4514 1 109.50000 418.400000
439 13214 7181 1 109.50000 418.400000
439 13214 7182 1 109.50000 418.400000
4514 13214 7181 1 109.50000 418.400000
4514 13214 7182 1 109.50000 418.400000
7181 13214 7182 1 109.50000 418.400000
5634 13215 6086 1 109.50000 418.400000
5634 13215 6510 1 109.50000 418.400000
5634 13215 7183 1 109.50000 418.400000
6086 13215 6510 1 109.50000 418.400000
6086 13215 7183 1 109.50000 418.400000
6510 13215 7183 1 109.50000 418.400000
4016 13216 6265 1 109.50000 418.400000
4016 13216 7184 1 109.50000 418.400000
4016 13216 7185 1 109.50000 418.400000
6265 13216 7184 1 109.50000 418.400000
6265 13216 7185 1 109.50000 418.400000
7184 13216 7185 1 109.50000 418.400000
7186 13217 7187 1 109.50000 418.400000
7186 13217 7188 1 109.50000 418.400000
7186 13217 7189 1 109.50000 418.400000
7187 13217 7188 1 109.50000 418.400000
7187 13217 7189 1 109.50000 418.400000
7188 13217 7189 1 109.50000 418.400000
7190 13218 7191 1 109.50000 418.400000
7190 13218 7192 1 109.50000 418.400000
7190 13218 7193 1 109.50000 418.400000
7191 13218 7192 1 109.50000 418.400000
7191 13218 7193 1 109.50000 418.400000
7192 13218 7193 1 109.50000 418.400000
38 13219 3291 1 109.50000 418.400000
38 13219 7196 1 109.50000 418.400000
38 13219 7197 1 109.50000 418.400000
3291 13219 7196 1 109.50000 418.400000
3291 13219 7197 1 109.50000 418.400000
7196 13219 7197 1 109.50000 418.400000
4982 13220 5246 1 109.50000 418.400000
4982 13220 7199 1 109.50000 418.400000
4982 13220 7200 1 109.50000 418.400000
5246 13220 7199 1 109.50000 418.400000
5246 13220 7200 1 109.50000 418.400000
7199 13220 7200 1 109.50000 418.400000
3139 13221 3203 1 109.50000 418.400000
3139 13221 7201 1 109.50000 418.400000
3139 13221 7202 1 109.50000 418.400000
3203 13221 7201 1 109.50000 418.400000
3203 13221 7202 1 109.50000 418.400000
7201 13221 7202 1 109.50000 418.400000
6444 13222 7203 1 109.50000 418.400000
6444 13222 7204 1 109.50000 418.400000
6444 13222 7469 1 109.50000 418.400000
7203 13222 7204 1 109.50000 418.400000
7203 13222 7469 1 109.50000 418.400000
7204 13222 7469 1 109.50000 418.400000
5885 13223 6346 1 109.50000 418.400000
5885 13223 7205 1 109.50000 418.400000
5885 13223 7206 1 109.50000 418.400000
6346 13223 7205 1 109.50000 418.400000
6346 13223 7206 1 109.50000 418.400000
7205 13223 7206 1 109.50000 418.400000
135 13224 3177 1 109.50000 418.400000
135 13224 7207 1 109.50000 418.400000
135 13224 7208 1 109.50000 418.400000
3177 13224 7207 1 109.50000 418.400000
3177 13224 7208 1 109.50000 418.400000
7207 13224 7208 1 109.50000 418.400000
698 13225 4637 1 109.50000 418.400000
698 13225 5355 1 109.50000 418.400000
698 13225 7209 1 109.50000 418.400000
4637 13225 5355 1 109.50000 418.400000
4637 13225 7209 1 109.50000 418.400000
5355 13225 7209 1 109.50000 418.400000
508 13226 3948 1 109.50000 418.400000
508 13226 5676 1 109.50000 418.400000
508 13226 6128 1 109.50000 418.400000
3948 13226 5676 1 109.50000 418.400000
3948 13226 6128 1 109.50000 418.400000
5676 13226 6128 1 109.50000 418.400000
7123 13227 7210 1 109.50000 418.400000
7123 13227 7211 1 109.50000 418.400000
7123 13227 7212 1 109.50000 418.400000
7210 13227 7211 1 109.50000 418.400000
7210 13227 7212 1 109.50000 418.400000
7211 13227 7212 1 109.50000 418.400000
4986 13228 5004 1 109.50000 418.400000
4986 13228 5889 1 109.50000 418.400000
4986 13228 7213 1 109.50000 418.400000
5004 13228 5889 1 109.50000 418.400000
5004 13228 7213 1 109.50000 418.400000
5889 13228 7213 1 109.50000 418.400000
4819 13229 7214 1 109.50000 418.400000
4819 13229 7215 1 109.50000 418.400000
4819 13229 8122 1 109.50000 418.400000
7214 13229 7215 1 109.50000 418.400000
7214 13229 8122 1 109.50000 418.400000
7215 13229 8122 1 109.50000 418.400000
7218 13230 7219 1 109.50000 418.400000
7218 13230 7220 1 109.50000 418.400000
7218 13230 7221 1 109.50000 418.400000
7219 13230 7220 1 109.50000 418.400000
7219 13230 7221 1 109.50000 418.400000
7220 13230 7221 1 109.50000 418.400000
2885 13231 4353 1 109.50000 418.400000
2885 13231 7225 1 109.50000 418.400000
2885 13231 7226 1 109.50000 418.400000
4353 13231 7225 1 109.50000 418.400000
4353 13231 7226 1 109.50000 418.400000
7225 13231 7226 1 109.50000 418.400000
3077 13232 4156 1 109.50000 418.400000
3077 13232 6419 1 109.50000 418.400000
3077 13232 7227 1 109.50000 418.400000
4156 13232 6419 1 109.50000 418.400000
4156 13232 7227 1 109.50000 418.400000
6419 13232 7227 1 109.50000 418.400000
7228 13233 7229 1 109.50000 418.400000
7228 13233 7230 1 109.50000 418.400000
7228 13233 7231 1 109.50000 418.400000
7229 13233 7230 1 109.50000 418.400000
7229 13233 7231 1 109.50000 418.400000
7230 13233 7231 1 109.50000 418.400000
4146 13234 7232 1 109.50000 418.400000
4146 13234 7233 1 109.50000 418.400000
4146 13234 7234 1 109.50000 418.400000
7232 13234 7233 1 109.50000 418.400000
7232 13234 7234 1 109.50000 418.400000
7233 13234 7234 1 109.50000 418.400000
296 13235 297 1 109.50000 418.400000
296 13235 7235 1 109.50000 418.400000
296 13235 7236 1 109.50000 418.400000
297 13235 7235 1 109.50000 418.400000
297 13235 7236 1 109.50000 418.400000
7235 13235 7236 1 109.50000 418.400000
1919 13236 6747 1 109.50000 418.400000
1919 13236 7238 1 109.50000 418.400000
1919 13236 7239 1 109.50000 418.400000
6747 13236 7238 1 109.50000 418.400000
6747 13236 7239 1 109.50000 418.400000
7238 13236 7239 1 109.50000 418.400000
94 13237 7241 1 109.50000 418.400000
94 13237 7242 1 109.50000 418.400000
94 13237 10704 1 109.50000 418.400000
7241 13237 7242 1 109.50000 418.400000
7241 13237 10704 1 109.50000 418.400000
7242 13237 10704 1 109.50000 418.400000
1241 13238 6534 1 109.50000 418.400000
1241 13238 7243 1 109.50000 418.400000
1241 13238 7244 1 109.50000 418.400000
6534 13238 7243 1 109.50000 418.400000
6534 13238 7244 1 109.50000 418.400000
7243 13238 7244 1 109.50000 418.400000
3786 13239 5207 1 109.50000 418.400000
3786 13239 7245 1 109.50000 418.400000
3786 13239 7246 1 109.50000 418.400000
5207 13239 7245 1 109.50000 418.400000
5207 13239 7246 1 109.50000 418.400000
7245 13239 7246 1 109.50000 418.400000
7247 13240 7248 1 109.50000 418.400000
7247 13240 7249 1 109.50000 418.400000
7247 13240 7250 1 109.50000 418.400000
7248 13240 7249 1 109.50000 418.400000
7248 13240 7250 1 109.50000 418.400000
7249 13240 7250 1 109.50000 418.400000
4054 13241 6098 1 109.50000 418.400000
4054 13241 6518 1 109.50000 418.400000
4054 13241 7251 1 109.50000 418.400000
6098 13241 6518 1 109.50000 418.400000
6098 13241 7251 1 109.50000 418.400000
6518 13241 7251 1 109.50000 418.400000
954 13242 3295 1 109.50000 418.400000
954 13242 7193 1 109.50000 418.400000
954 13242 7253 1 109.50000 418.400000
3295 13242 7193 1 109.50000 418.400000
3295 13242 7253 1 109.50000 418.400000
7193 13242 7253 1 109.50000 418.400000
1210 13243 2284 1 109.50000 418.400000
1210 13243 7254 1 109.50000 418.400000
1210 13243 8084 1 109.50000 418.400000
2284 13243 7254 1 109.50000 418.400000
2284 13243 8084 1 109.50000 418.400000
7254 13243 8084 1 109.50000 418.400000
3084 13244 3086 1 109.50000 418.400000
3084 13244 7255 1 109.50000 418.400000
3084 13244 7256 1 109.50000 418.400000
3086 13244 7255 1 109.50000 418.400000
3086 13244 7256 1 109.50000 418.400000
7255 13244 7256 1 109.50000 418.400000
1941 13245 5608 1 109.50000 418.400000
1941 13245 7258 1 109.50000 418.400000
1941 13245 7259 1 109.50000 418.400000
5608 13245 7258 1 109.50000 418.400000
5608 13245 7259 1 109.50000 418.400000
7258 13245 7259 1 109.50000 418.400000
5904 13246 5938 1 109.50000 418.400000
5904 13246 7260 1 109.50000 418.400000
5904 13246 7261 1 109.50000 418.400000
5938 13246 7260 1 109.50000 418.400000
5938 13246 7261 1 109.50000 418.400000
7260 13246 7261 1 109.50000 418.400000
7262 13247 7263 1 109.50000 418.400000
7262 13247 7264 1 109.50000 418.400000
7262 13247 11202 1 109.50000 418.400000
7263 13247 7264 1 109.50000 418.400000
7263 13247 11202 1 109.50000 418.400000
7264 13247 11202 1 109.50000 418.400000
111 13248 451 1 109.50000 418.400000
111 13248 7265 1 109.50000 418.400000
111 13248 7266 1 109.50000 418.400000
451 13248 7265 1 109.50000 418.400000
451 13248 7266 1 109.50000 418.400000
7265 13248 7266 1 109.50000 418.400000
1541 13249 3366 1 109.50000 418.400000
1541 13249 3367 1 109.50000 418.400000
1541 13249 7267 1 109.50000 418.400000
3366 13249 3367 1 109.50000 418.400000
3366 13249 7267 1 109.50000 418.400000
3367 13249 7267 1 109.50000 418.400000
2681 13250 2901 1 109.50000 418.400000
2681 13250 5778 1 109.50000 418.400000
2681 13250 5959 1 109.50000 418.400000
2901 13250 5778 1 109.50000 418.400000
2901 13250 5959 1 109.50000 418.400000
5778 13250 5959 1 109.50000 418.400000
6203 13251 6660 1 109.50000 418.400000
6203 13251 7270 1 109.50000 418.400000
6203 13251 10401 1 109.50000 418.400000
6660 13251 7270 1 109.50000 418.400000
6660 13251 10401 1 109.50000 418.400000
7270 13251 10401 1 109.50000 418.400000
7271 13252 7272 1 109.50000 418.400000
7271 13252 7273 1 109.50000 418.400000
7271 13252 7274 1 109.50000 418.400000
7272 13252 7273 1 109.50000 418.400000
7272 13252 7274 1 109.50000 418.400000
7273 13252 7274 1 109.50000 418.400000
823 13253 4227 1 109.50000 418.400000
823 13253 7275 1 109.50000 418.400000
823 13253 7276 1 109.50000 418.400000
4227 13253 7275 1 109.50000 418.400000
4227 13253 7276 1 109.50000 418.400000
7275 13253 7276 1 109.50000 418.400000
7278 13254 7279 1 109.50000 418.400000
7278 13254 7280 1 109.50000 418.400000
7278 13254 9033 1 109.50000 418.400000
7279 13254 7280 1 109.50000 418.400000
7279 13254 9033 1 109.50000 418.400000
7280 13254 9033 1 109.50000 418.400000
2146 13255 5475 1 109.50000 418.400000
2146 13255 6135 1 109.50000 418.400000
2146 13255 7281 1 109.50000 418.400000
5475 13255 6135 1 109.50000 418.400000
5475 13255 7281 1 109.50000 418.400000
6135 13255 7281 1 109.50000 418.400000
7268 13256 7284 1 109.50000 418.400000
7268 13256 7285 1 109.50000 418.400000
7268 13256 7286 1 109.50000 418.400000
7284 13256 7285 1 109.50000 418.400000
7284 13256 7286 1 109.50000 418.400000
7285 13256 7286 1 109.50000 418.400000
2285 13257 5579 1 109.50000 418.400000
2285 13257 7223 1 109.50000 418.400000
2285 13257 7287 1 109.50000 418.400000
5579 13257 7223 1 109.50000 418.400000
5579 13257 7287 1 109.50000 418.400000
7223 13257 7287 1 109.50000 418.400000
7289 13258 7290 1 109.50000 418.400000
7289 13258 10193 1 109.50000 418.400000
7289 13258 10839 1 109.50000 418.400000
7290 13258 10193 1 109.50000 418.400000
7290 13258 10839 1 109.50000 418.400000
10193 13258 10839 1 109.50000 418.400000
15 13259 7292 1 109.50000 418.400000
15 13259 7293 1 109.50000 418.400000
15 13259 7294 1 109.50000 418.400000
7292 13259 7293 1 109.50000 418.400000
7292 13259 7294 1 109.50000 418.400000
7293 13259 7294 1 109.50000 418.400000
3471 13260 7295 1 109.50000 418.400000
3471 13260 7296 1 109.50000 418.400000
3471 13260 7297 1 109.50000 418.400000
7295 13260 7296 1 109.50000 418.400000
7295 13260 7297 1 109.50000 418.400000
7296 13260 7297 1 109.50000 418.400000
5056 13261 5978 1 109.50000 418.400000
5056 13261 5980 1 109.50000 418.400000
5056 13261 5981 1 109.50000 418.400000
5978 13261 5980 1 109.50000 418.400000
5978 13261 5981 1 109.50000 418.400000
5980 13261 5981 1 109.50000 418.400000
2847 13262 7298 1 109.50000 418.400000
2847 13262 7299 1 109.50000 418.400000
2847 13262 7300 1 109.50000 418.400000
7298 13262 7299 1 109.50000 418.400000
7298 13262 7300 1 109.50000 418.400000
7299 13262 7300 1 109.50000 418.400000
5736 13263 7301 1 109.50000 418.400000
5736 13263 7302 1 109.50000 418.400000
5736 13263 11212 1 109.50000 418.400000
7301 13263 7302 1 109.50000 418.400000
7301 13263 11212 1 109.50000 418.400000
7302 13263 11212 1 109.50000 418.400000
6237 13264 7303 1 109.50000 418.400000
6237 13264 7304 1 109.50000 418.400000
6237 13264 7305 1 109.50000 418.400000
7303 13264 7304 1 109.50000 418.400000
7303 13264 7305 1 109.50000 418.400000
7304 13264 7305 1 109.50000 418.400000
4644 13265 7306 1 109.50000 418.400000
4644 13265 7307 1 109.50000 418.400000
4644 13265 7308 1 109.50000 418.400000
7306 13265 7307 1 109.50000 418.400000
7306 13265 7308 1 109.50000 418.400000
7307 13265 7308 1 109.50000 418.400000
7309 13266 7310 1 109.50000 418.400000
7309 13266 7311 1 109.50000 418.400000
7309 13266 7312 1 109.50000 418.400000
7310 13266 7311 1 109.50000 418.400000
7310 13266 7312 1 109.50000 418.400000
7311 13266 7312 1 109.50000 418.400000
1490 13267 7151 1 109.50000 418.400000
1490 13267 7313 1 109.50000 418.400000
1490 13267 7314 1 109.50000 418.400000
7151 13267 7313 1 109.50000 418.400000
7151 13267 7314 1 109.50000 418.400000
7313 13267 7314 1 109.50000 418.400000
5389 13268 7315 1 109.50000 418.400000
5389 13268 7316 1 109.50000 418.400000
5389 13268 9938 1 109.50000 418.400000
7315 13268 7316 1 109.50000 418.400000
7315 13268 9938 1 109.50000 418.400000
7316 13268 9938 1 109.50000 418.400000
5927 13269 5952 1 109.50000 418.400000
5927 13269 7129 1 109.50000 418.400000
5927 13269 7231 1 109.50000 418.400000
5952 13269 7129 1 109.50000 418.400000
5952 13269 7231 1 109.50000 418.400000
7129 13269 7231 1 109.50000 418.400000
752 13270 2567 1 109.50000 418.400000
752 13270 7317 1 109.50000 418.400000
752 13270 7318 1 109.50000 418.400000
2567 13270 7317 1 109.50000 418.400000
2567 13270 7318 1 109.50000 418.400000
7317 13270 7318 1 109.50000 418.400000
1349 13271 1350 1 109.50000 418.400000
1349 13271 1351 1 109.50000 418.400000
1349 13271 9817 1 109.50000 418.400000
1350 13271 1351 1 109.50000 418.400000
1350 13271 9817 1 109.50000 418.400000
1351 13271 9817 1 109.50000 418.400000
2067 13272 5248 1 109.50000 418.400000
2067 13272 7321 1 109.50000 418.400000
2067 13272 7322 1 109.50000 418.400000
5248 13272 7321 1 109.50000 418.400000
5248 13272 7322 1 109.50000 418.400000
7321 13272 7322 1 109.50000 418.400000
1974 13273 2464 1 109.50000 418.400000
1974 13273 7323 1 109.50000 418.400000
1974 13273 7324 1 109.50000 418.400000
2464 13273 7323 1 109.50000 418.400000
2464 13273 7324 1 109.50000 418.400000
7323 13273 7324 1 109.50000 418.400000
3228 13274 3281 1 109.50000 418.400000
3228 13274 4306 1 109.50000 418.400000
3228 13274 4987 1 109.50000 418.400000
3281 13274 4306 1 109.50000 418.400000
3281 13274 4987 1 109.50000 418.400000
4306 13274 4987 1 109.50000 418.400000
6506 13275 7327 1 109.50000 418.400000
6506 13275 7328 1 109.50000 418.400000
6506 13275 7781 1 109.50000 418.400000
7327 13275 7328 1 109.50000 418.400000
7327 13275 7781 1 109.50000 418.400000
7328 13275 7781 1 109.50000 418.400000
3327 13276 6176 1 109.50000 418.400000
3327 13276 7283 1 109.50000 418.400000
3327 13276 7329 1 109.50000 418.400000
6176 13276 7283 1 109.50000 418.400000
6176 13276 7329 1 109.50000 418.400000
7283 13276 7329 1 109.50000 418.400000
86 13277 4920 1 109.50000 418.400000
86 13277 5187 1 109.50000 418.400000
86 13277 7330 1 109.50000 418.400000
4920 13277 5187 1 109.50000 418.400000
4920 13277 7330 1 109.50000 418.400000
5187 13277 7330 1 109.50000 418.400000
6906 13278 7331 1 109.50000 418.400000
6906 13278 7332 1 109.50000 418.400000
6906 13278 7333 1 109.50000 418.400000
7331 13278 7332 1 109.50000 418.400000
7331 13278 7333 1 109.50000 418.400000
7332 13278 7333 1 109.50000 418.400000
7334 13279 7335 1 109.50000 418.400000
7334 13279 7336 1 109.50000 418.400000
7334 13279 7337 1 109.50000 418.400000
7335 13279 7336 1 109.50000 418.400000
7335 13279 7337 1 109.50000 418.400000
7336 13279 7337 1 109.50000 418.400000
3200 13280 7338 1 109.50000 418.400000
3200 13280 7339 1 109.50000 418.400000
3200 13280 7340 1 109.50000 418.400000
7338 13280 7339 1 109.50000 418.400000
7338 13280 7340 1 109.50000 418.400000
7339 13280 7340 1 109.50000 418.400000
6163 13281 7342 1 109.50000 418.400000
6163 13281 7343 1 109.50000 418.400000
6163 13281 7344 1 109.50000 418.400000
7342 13281 7343 1 109.50000 418.400000
7342 13281 7344 1 109.50000 418.400000
7343 13281 7344 1 109.50000 418.400000
2254 13282 7345 1 109.50000 418.400000
2254 13282 7346 1 109.50000 418.400000
2254 13282 7347 1 109.50000 418.400000
7345 13282 7346 1 109.50000 418.400000
7345 13282 7347 1 109.50000 418.400000
7346 13282 7347 1 109.50000 418.400000
7284 13283 7348 1 109.50000 418.400000
7284 13283 7349 1 109.50000 418.400000
7284 13283 7350 1 109.50000 418.400000
7348 13283 7349 1 109.50000 418.400000
7348 13283 7350 1 109.50000 418.400000
7349 13283 7350 1 109.50000 418.400000
4098 13284 7351 1 109.50000 418.400000
4098 13284 7352 1 109.50000 418.400000
4098 13284 7353 1 109.50000 418.400000
7351 13284 7352 1 109.50000 418.400000
7351 13284 7353 1 109.50000 418.400000
7352 13284 7353 1 109.50000 418.400000
2736 13285 7354 1 109.50000 418.400000
2736 13285 7355 1 109.50000 418.400000
2736 13285 7356 1 109.50000 418.400000
7354 13285 7355 1 109.50000 418.400000
7354 13285 7356 1 109.50000 418.400000
7355 13285 7356 1 109.50000 418.400000
1938 13286 6762 1 109.50000 418.400000
1938 13286 7357 1 109.50000 418.400000
1938 13286 7359 1 109.50000 418.400000
6762 13286 7357 1 109.50000 418.400000
6762 13286 7359 1 109.50000 418.400000
7357 13286 7359 1 109.50000 418.400000
2654 13287 7360 1 109.50000 418.400000
2654 13287 7361 1 109.50000 418.400000
2654 13287 7362 1 109.50000 418.400000
7360 13287 7361 1 109.50000 418.400000
7360 13287 7362 1 109.50000 418.400000
7361 13287 7362 1 109.50000 418.400000
5940 13288 7363 1 109.50000 418.400000
5940 13288 7364 1 109.50000 418.400000
5940 13288 7365 1 109.50000 418.400000
7363 13288 7364 1 109.50000 418.400000
7363 13288 7365 1 109.50000 418.400000
7364 13288 7365 1 109.50000 418.400000
2366 13289 2704 1 109.50000 418.400000
2366 13289 6754 1 109.50000 418.400000
2366 13289 7366 1 109.50000 418.400000
2704 13289 6754 1 109.50000 418.400000
2704 13289 7366 1 109.50000 418.400000
6754 13289 7366 1 109.50000 418.400000
159 13290 3972 1 109.50000 418.400000
159 13290 4882 1 109.50000 418.400000
159 13290 7367 1 109.50000 418.400000
3972 13290 4882 1 109.50000 418.400000
3972 13290 7367 1 109.50000 418.400000
4882 13290 7367 1 109.50000 418.400000
1150 13291 1151 1 109.50000 418.400000
1150 13291 7370 1 109.50000 418.400000
1150 13291 7372 1 109.50000 418.400000
1151 13291 7370 1 109.50000 418.400000
1151 13291 7372 1 109.50000 418.400000
7370 13291 7372 1 109.50000 418.400000
1199 13292 1201 1 109.50000 418.400000
1199 13292 7374 1 109.50000 418.400000
1199 13292 9508 1 109.50000 418.400000
1201 13292 7374 1 109.50000 418.400000
1201 13292 9508 1 109.50000 418.400000
7374 13292 9508 1 109.50000 418.400000
1641 13293 5273 1 109.50000 418.400000
1641 13293 5972 1 109.50000 418.400000
1641 13293 7247 1 109.50000 418.400000
5273 13293 5972 1 109.50000 418.400000
5273 13293 7247 1 109.50000 418.400000
5972 13293 7247 1 109.50000 418.400000
7377 13294 7378 1 109.50000 418.400000
7377 13294 7379 1 109.50000 418.400000
7377 13294 7380 1 109.50000 418.400000
7378 13294 7379 1 109.50000 418.400000
7378 13294 7380 1 109.50000 418.400000
7379 13294 7380 1 109.50000 418.400000
1579 13295 4321 1 109.50000 418.400000
1579 13295 7381 1 109.50000 418.400000
1579 13295 7382 1 109.50000 418.400000
4321 13295 7381 1 109.50000 418.400000
4321 13295 7382 1 109.50000 418.400000
7381 13295 7382 1 109.50000 418.400000
3131 13296 4985 1 109.50000 418.400000
3131 13296 6445 1 109.50000 418.400000
3131 13296 7383 1 109.50000 418.400000
4985 13296 6445 1 109.50000 418.400000
4985 13296 7383 1 109.50000 418.400000
6445 13296 7383 1 109.50000 418.400000
5586 13297 5912 1 109.50000 418.400000
5586 13297 6105 1 109.50000 418.400000
5586 13297 7091 1 109.50000 418.400000
5912 13297 6105 1 109.50000 418.400000
5912 13297 7091 1 109.50000 418.400000
6105 13297 7091 1 109.50000 418.400000
7384 13298 7385 1 109.50000 418.400000
7384 13298 7386 1 109.50000 418.400000
7384 13298 7387 1 109.50000 418.400000
7385 13298 7386 1 109.50000 418.400000
7385 13298 7387 1 109.50000 418.400000
7386 13298 7387 1 109.50000 418.400000
541 13299 3182 1 109.50000 418.400000
541 13299 7388 1 109.50000 418.400000
541 13299 7389 1 109.50000 418.400000
3182 13299 7388 1 109.50000 418.400000
3182 13299 7389 1 109.50000 418.400000
7388 13299 7389 1 109.50000 418.400000
6791 13300 7022 1 109.50000 418.400000
6791 13300 7390 1 109.50000 418.400000
6791 13300 7391 1 109.50000 418.400000
7022 13300 7390 1 109.50000 418.400000
7022 13300 7391 1 109.50000 418.400000
7390 13300 7391 1 109.50000 418.400000
773 13301 4579 1 109.50000 418.400000
773 13301 7392 1 109.50000 418.400000
773 13301 7393 1 109.50000 418.400000
4579 13301 7392 1 109.50000 418.400000
4579 13301 7393 1 109.50000 418.400000
7392 13301 7393 1 109.50000 418.400000
5994 13302 7394 1 109.50000 418.400000
5994 13302 7395 1 109.50000 418.400000
5994 13302 7396 1 109.50000 418.400000
7394 13302 7395 1 109.50000 418.400000
7394 13302 7396 1 109.50000 418.400000
7395 13302 7396 1 109.50000 418.400000
86 13303 88 1 109.50000 418.400000
86 13303 7397 1 109.50000 418.400000
86 13303 7398 1 109.50000 418.400000
88 13303 7397 1 109.50000 418.400000
88 13303 7398 1 109.50000 418.400000
7397 13303 7398 1 109.50000 418.400000
7401 13304 7402 1 109.50000 418.400000
7401 13304 7403 1 109.50000 418.400000
7401 13304 7404 1 109.50000 418.400000
7402 13304 7403 1 109.50000 418.400000
7402 13304 7404 1 109.50000 418.400000
7403 13304 7404 1 109.50000 418.400000
3720 13305 7405 1 109.50000 418.400000
3720 13305 7406 1 109.50000 418.400000
3720 13305 7407 1 109.50000 418.400000
7405 13305 7406 1 109.50000 418.400000
7405 13305 7407 1 109.50000 418.400000
7406 13305 7407 1 109.50000 418.400000
3954 13306 3956 1 109.50000 418.400000
3954 13306 7408 1 109.50000 418.400000
3954 13306 10864 1 109.50000 418.400000
3956 13306 7408 1 109.50000 418.400000
3956 13306 10864 1 109.50000 418.400000
7408 13306 10864 1 109.50000 418.400000
5465 13307 7411 1 109.50000 418.400000
5465 13307 7412 1 109.50000 418.400000
5465 13307 7413 1 109.50000 418.400000
7411 13307 7412 1 109.50000 418.400000
7411 13307 7413 1 109.50000 418.400000
7412 13307 7413 1 109.50000 418.400000
2701 13308 3230 1 109.50000 418.400000
2701 13308 3262 1 109.50000 418.400000
2701 13308 7414 1 109.50000 418.400000
3230 13308 3262 1 109.50000 418.400000
3230 13308 7414 1 109.50000 418.400000
3262 13308 7414 1 109.50000 418.400000
4181 13309 5817 1 109.50000 418.400000
4181 13309 7415 1 109.50000 418.400000
4181 13309 7416 1 109.50000 418.400000
5817 13309 7415 1 109.50000 418.400000
5817 13309 7416 1 109.50000 418.400000
7415 13309 7416 1 109.50000 418.400000
2714 13310 4679 1 109.50000 418.400000
2714 13310 7253 1 109.50000 418.400000
2714 13310 7417 1 109.50000 418.400000
4679 13310 7253 1 109.50000 418.400000
4679 13310 7417 1 109.50000 418.400000
7253 13310 7417 1 109.50000 418.400000
726 13311 7418 1 109.50000 418.400000
726 13311 7419 1 109.50000 418.400000
726 13311 7420 1 109.50000 418.400000
7418 13311 7419 1 109.50000 418.400000
7418 13311 7420 1 109.50000 418.400000
7419 13311 7420 1 109.50000 418.400000
5345 13312 6069 1 109.50000 418.400000
5345 13312 7421 1 109.50000 418.400000
5345 13312 7422 1 109.50000 418.400000
6069 13312 7421 1 109.50000 418.400000
6069 13312 7422 1 109.50000 418.400000
7421 13312 7422 1 109.50000 418.400000
3288 13313 6035 1 109.50000 418.400000
3288 13313 6553 1 109.50000 418.400000
3288 13313 7423 1 109.50000 418.400000
6035 13313 6553 1 109.50000 418.400000
6035 13313 7423 1 109.50000 418.400000
6553 13313 7423 1 109.50000 418.400000
7409 13314 7424 1 109.50000 418.400000
7409 13314 7425 1 109.50000 418.400000
7409 13314 7426 1 109.50000 418.400000
7424 13314 7425 1 109.50000 418.400000
7424 13314 7426 1 109.50000 418.400000
7425 13314 7426 1 109.50000 418.400000
6639 13315 7427 1 109.50000 418.400000
6639 13315 7428 1 109.50000 418.400000
6639 13315 7429 1 109.50000 418.400000
7427 13315 7428 1 109.50000 418.400000
7427 13315 7429 1 109.50000 418.400000
7428 13315 7429 1 109.50000 418.400000
7093 13316 7249 1 109.50000 418.400000
7093 13316 7430 1 109.50000 418.400000
7093 13316 7432 1 109.50000 418.400000
7249 13316 7430 1 109.50000 418.400000
7249 13316 7432 1 109.50000 418.400000
7430 13316 7432 1 109.50000 418.400000
1077 13317 4417 1 109.50000 418.400000
1077 13317 5296 1 109.50000 418.400000
1077 13317 7433 1 109.50000 418.400000
4417 13317 5296 1 109.50000 418.400000
4417 13317 7433 1 109.50000 418.400000
5296 13317 7433 1 109.50000 418.400000
4259 13318 7434 1 109.50000 418.400000
4259 13318 7435 1 109.50000 418.400000
4259 13318 7436 1 109.50000 418.400000
7434 13318 7435 1 109.50000 418.400000
7434 13318 7436 1 109.50000 418.400000
7435 13318 7436 1 109.50000 418.400000
1166 13319 7437 1 109.50000 418.400000
1166 13319 7438 1 109.50000 418.400000
1166 13319 7439 1 109.50000 418.400000
7437 13319 7438 1 109.50000 418.400000
7437 13319 7439 1 109.50000 418.400000
7438 13319 7439 1 109.50000 418.400000
4880 13320 7310 1 109.50000 418.400000
4880 13320 7440 1 109.50000 418.400000
4880 13320 7441 1 109.50000 418.400000
7310 13320 7440 1 109.50000 418.400000
7310 13320 7441 1 109.50000 418.400000
7440 13320 7441 1 109.50000 418.400000
4383 13321 6138 1 109.50000 418.400000
4383 13321 7181 1 109.50000 418.400000
4383 13321 7442 1 109.50000 418.400000
6138 13321 7181 1 109.50000 418.400000
6138 13321 7442 1 109.50000 418.400000
7181 13321 7442 1 109.50000 418.400000
4460 13322 7443 1 109.50000 418.400000
4460 13322 7444 1 109.50000 418.400000
4460 13322 7445 1 109.50000 418.400000
7443 13322 7444 1 109.50000 418.400000
7443 13322 7445 1 109.50000 418.400000
7444 13322 7445 1 109.50000 418.400000
4307 13323 6407 1 109.50000 418.400000
4307 13323 6765 1 109.50000 418.400000
4307 13323 6916 1 109.50000 418.400000
6407 13323 6765 1 109.50000 418.400000
6407 13323 6916 1 109.50000 418.400000
6765 13323 6916 1 109.50000 418.400000
4807 13324 6656 1 109.50000 418.400000
4807 13324 7447 1 109.50000 418.400000
4807 13324 7448 1 109.50000 418.400000
6656 13324 7447 1 109.50000 418.400000
6656 13324 7448 1 109.50000 418.400000
7447 13324 7448 1 109.50000 418.400000
4675 13325 6912 1 109.50000 418.400000
4675 13325 7449 1 109.50000 418.400000
4675 13325 7450 1 109.50000 418.400000
6912 13325 7449 1 109.50000 418.400000
6912 13325 7450 1 109.50000 418.400000
7449 13325 7450 1 109.50000 418.400000
6161 13326 6162 1 109.50000 418.400000
6161 13326 7452 1 109.50000 418.400000
6161 13326 7453 1 109.50000 418.400000
6162 13326 7452 1 109.50000 418.400000
6162 13326 7453 1 109.50000 418.400000
7452 13326 7453 1 109.50000 418.400000
6706 13327 7454 1 109.50000 418.400000
6706 13327 7455 1 109.50000 418.400000
6706 13327 7456 1 109.50000 418.400000
7454 13327 7455 1 109.50000 418.400000
7454 13327 7456 1 109.50000 418.400000
7455 13327 7456 1 109.50000 418.400000
13 13328 2589 1 109.50000 418.400000
13 13328 7457 1 109.50000 418.400000
13 13328 7458 1 109.50000 418.400000
2589 13328 7457 1 109.50000 418.400000
2589 13328 7458 1 109.50000 418.400000
7457 13328 7458 1 109.50000 418.400000
5055 13329 7459 1 109.50000 418.400000
5055 13329 7460 1 109.50000 418.400000
5055 13329 7461 1 109.50000 418.400000
7459 13329 7460 1 109.50000 418.400000
7459 13329 7461 1 109.50000 418.400000
7460 13329 7461 1 109.50000 418.400000
746 13330 1795 1 109.50000 418.400000
746 13330 7462 1 109.50000 418.400000
746 13330 7463 1 109.50000 418.400000
1795 13330 7462 1 109.50000 418.400000
1795 13330 7463 1 109.50000 418.400000
7462 13330 7463 1 109.50000 418.400000
2547 13331 7464 1 109.50000 418.400000
2547 13331 7465 1 109.50000 418.400000
2547 13331 7466 1 109.50000 418.400000
7464 13331 7465 1 109.50000 418.400000
7464 13331 7466 1 109.50000 418.400000
7465 13331 7466 1 109.50000 418.400000
6687 13332 6925 1 109.50000 418.400000
6687 13332 7467 1 109.50000 418.400000
6687 13332 7468 1 109.50000 418.400000
6925 13332 7467 1 109.50000 418.400000
6925 13332 7468 1 109.50000 418.400000
7467 13332 7468 1 109.50000 418.400000
4091 13333 5277 1 109.50000 418.400000
4091 13333 6410 1 109.50000 418.400000
4091 13333 7469 1 109.50000 418.400000
5277 13333 6410 1 109.50000 418.400000
5277 13333 7469 1 109.50000 418.400000
6410 13333 7469 1 109.50000 418.400000
2562 13334 4229 1 109.50000 418.400000
2562 13334 5403 1 109.50000 418.400000
2562 13334 7471 1 109.50000 418.400000
4229 13334 5403 1 109.50000 418.400000
4229 13334 7471 1 109.50000 418.400000
5403 13334 7471 1 109.50000 418.400000
2821 13335 7084 1 109.50000 418.400000
2821 13335 7271 1 109.50000 418.400000
2821 13335 7473 1 109.50000 418.400000
7084 13335 7271 1 109.50000 418.400000
7084 13335 7473 1 109.50000 418.400000
7271 13335 7473 1 109.50000 418.400000
7474 13336 7475 1 109.50000 418.400000
7474 13336 7476 1 109.50000 418.400000
7474 13336 7477 1 109.50000 418.400000
7475 13336 7476 1 109.50000 418.400000
7475 13336 7477 1 109.50000 418.400000
7476 13336 7477 1 109.50000 418.400000
5753 13337 6327 1 109.50000 418.400000
5753 13337 6431 1 109.50000 418.400000
5753 13337 7478 1 109.50000 418.400000
6327 13337 6431 1 109.50000 418.400000
6327 13337 7478 1 109.50000 418.400000
6431 13337 7478 1 109.50000 418.400000
407 13338 3707 1 109.50000 418.400000
407 13338 7479 1 109.50000 418.400000
407 13338 7480 1 109.50000 418.400000
3707 13338 7479 1 109.50000 418.400000
3707 13338 7480 1 109.50000 418.400000
7479 13338 7480 1 109.50000 418.400000
4336 13339 7481 1 109.50000 418.400000
4336 13339 7482 1 109.50000 418.400000
4336 13339 7483 1 109.50000 418.400000
7481 13339 7482 1 109.50000 418.400000
7481 13339 7483 1 109.50000 418.400000
7482 13339 7483 1 109.50000 418.400000
4959 13340 5571 1 109.50000 418.400000
4959 13340 6191 1 109.50000 418.400000
4959 13340 7484 1 109.50000 418.400000
5571 13340 6191 1 109.50000 418.400000
5571 13340 7484 1 109.50000 418.400000
6191 13340 7484 1 109.50000 418.400000
3340 13341 7487 1 109.50000 418.400000
3340 13341 7488 1 109.50000 418.400000
3340 13341 7489 1 109.50000 418.400000
7487 13341 7488 1 109.50000 418.400000
7487 13341 7489 1 109.50000 418.400000
7488 13341 7489 1 109.50000 418.400000
651 13342 7490 1 109.50000 418.400000
651 13342 7491 1 109.50000 418.400000
651 13342 7492 1 109.50000 418.400000
7490 13342 7491 1 109.50000 418.400000
7490 13342 7492 1 109.50000 418.400000
7491 13342 7492 1 109.50000 418.400000
2541 13343 4791 1 109.50000 418.400000
2541 13343 7493 1 109.50000 418.400000
2541 13343 7494 1 109.50000 418.400000
4791 13343 7493 1 109.50000 418.400000
4791 13343 7494 1 109.50000 418.400000
7493 13343 7494 1 109.50000 418.400000
6447 13344 7143 1 109.50000 418.400000
6447 13344 7495 1 109.50000 418.400000
6447 13344 7496 1 109.50000 418.400000
7143 13344 7495 1 109.50000 418.400000
7143 13344 7496 1 109.50000 418.400000
7495 13344 7496 1 109.50000 418.400000
7498 13345 7499 1 109.50000 418.400000
7498 13345 7500 1 109.50000 418.400000
7498 13345 7501 1 109.50000 418.400000
7499 13345 7500 1 109.50000 418.400000
7499 13345 7501 1 109.50000 418.400000
7500 13345 7501 1 109.50000 418.400000
891 13346 7502 1 109.50000 418.400000
891 13346 7503 1 109.50000 418.400000
891 13346 7504 1 109.50000 418.400000
7502 13346 7503 1 109.50000 418.400000
7502 13346 7504 1 109.50000 418.400000
7503 13346 7504 1 109.50000 418.400000
582 13347 5033 1 109.50000 418.400000
582 13347 7505 1 109.50000 418.400000
582 13347 7506 1 109.50000 418.400000
5033 13347 7505 1 109.50000 418.400000
5033 13347 7506 1 109.50000 418.400000
7505 13347 7506 1 109.50000 418.400000
3566 13348 4178 1 109.50000 418.400000
3566 13348 7508 1 109.50000 418.400000
3566 13348 7509 1 109.50000 418.400000
4178 13348 7508 1 109.50000 418.400000
4178 13348 7509 1 109.50000 418.400000
7508 13348 7509 1 109.50000 418.400000
611 13349 6450 1 109.50000 418.400000
611 13349 7511 1 109.50000 418.400000
611 13349 7512 1 109.50000 418.400000
6450 13349 7511 1 109.50000 418.400000
6450 13349 7512 1 109.50000 418.400000
7511 13349 7512 1 109.50000 418.400000
250 13350 253 1 109.50000 418.400000
250 13350 7515 1 109.50000 418.400000
250 13350 8014 1 109.50000 418.400000
253 13350 7515 1 109.50000 418.400000
253 13350 8014 1 109.50000 418.400000
7515 13350 8014 1 109.50000 418.400000
2255 13351 7436 1 109.50000 418.400000
2255 13351 7516 1 109.50000 418.400000
2255 13351 7517 1 109.50000 418.400000
7436 13351 7516 1 109.50000 418.400000
7436 13351 7517 1 109.50000 418.400000
7516 13351 7517 1 109.50000 418.400000
3270 13352 6433 1 109.50000 418.400000
3270 13352 7518 1 109.50000 418.400000
3270 13352 7519 1 109.50000 418.400000
6433 13352 7518 1 109.50000 418.400000
6433 13352 7519 1 109.50000 418.400000
7518 13352 7519 1 109.50000 418.400000
1395 13353 7520 1 109.50000 418.400000
1395 13353 7521 1 109.50000 418.400000
1395 13353 10248 1 109.50000 418.400000
7520 13353 7521 1 109.50000 418.400000
7520 13353 10248 1 109.50000 418.400000
7521 13353 10248 1 109.50000 418.400000
5638 13354 7523 1 109.50000 418.400000
5638 13354 7524 1 109.50000 418.400000
5638 13354 7525 1 109.50000 418.400000
7523 13354 7524 1 109.50000 418.400000
7523 13354 7525 1 109.50000 418.400000
7524 13354 7525 1 109.50000 418.400000
5875 13355 6971 1 109.50000 418.400000
5875 13355 7526 1 109.50000 418.400000
5875 13355 7527 1 109.50000 418.400000
6971 13355 7526 1 109.50000 418.400000
6971 13355 7527 1 109.50000 418.400000
7526 13355 7527 1 109.50000 418.400000
3395 13356 7530 1 109.50000 418.400000
3395 13356 7531 1 109.50000 418.400000
3395 13356 7532 1 109.50000 418.400000
7530 13356 7531 1 109.50000 418.400000
7530 13356 7532 1 109.50000 418.400000
7531 13356 7532 1 109.50000 418.400000
2501 13357 4382 1 109.50000 418.400000
2501 13357 7533 1 109.50000 418.400000
2501 13357 7534 1 109.50000 418.400000
4382 13357 7533 1 109.50000 418.400000
4382 13357 7534 1 109.50000 418.400000
7533 13357 7534 1 109.50000 418.400000
509 13358 3755 1 109.50000 418.400000
509 13358 5782 1 109.50000 418.400000
509 13358 7535 1 109.50000 418.400000
3755 13358 5782 1 109.50000 418.400000
3755 13358 7535 1 109.50000 418.400000
5782 13358 7535 1 109.50000 418.400000
4482 13359 6977 1 109.50000 418.400000
4482 13359 7536 1 109.50000 418.400000
4482 13359 7537 1 109.50000 418.400000
6977 13359 7536 1 109.50000 418.400000
6977 13359 7537 1 109.50000 418.400000
7536 13359 7537 1 109.50000 418.400000
2580 13360 4724 1 109.50000 418.400000
2580 13360 6989 1 109.50000 418.400000
2580 13360 7538 1 109.50000 418.400000
4724 13360 6989 1 109.50000 418.400000
4724 13360 7538 1 109.50000 418.400000
6989 13360 7538 1 109.50000 418.400000
1266 13361 7497 1 109.50000 418.400000
1266 13361 7539 1 109.50000 418.400000
1266 13361 7540 1 109.50000 418.400000
7497 13361 7539 1 109.50000 418.400000
7497 13361 7540 1 109.50000 418.400000
7539 13361 7540 1 109.50000 418.400000
6965 13362 7541 1 109.50000 418.400000
6965 13362 7542 1 109.50000 418.400000
6965 13362 7543 1 109.50000 418.400000
7541 13362 7542 1 109.50000 418.400000
7541 13362 7543 1 109.50000 418.400000
7542 13362 7543 1 109.50000 418.400000
4488 13363 5114 1 109.50000 418.400000
4488 13363 6041 1 109.50000 418.400000
4488 13363 7544 1 109.50000 418.400000
5114 13363 6041 1 109.50000 418.400000
5114 13363 7544 1 109.50000 418.400000
6041 13363 7544 1 109.50000 418.400000
1585 13364 1636 1 109.50000 418.400000
1585 13364 7545 1 109.50000 418.400000
1585 13364 7546 1 109.50000 418.400000
1636 13364 7545 1 109.50000 418.400000
1636 13364 7546 1 109.50000 418.400000
7545 13364 7546 1 109.50000 418.400000
2467 13365 3774 1 109.50000 418.400000
2467 13365 5031 1 109.50000 418.400000
2467 13365 6952 1 109.50000 418.400000
3774 13365 5031 1 109.50000 418.400000
3774 13365 6952 1 109.50000 418.400000
5031 13365 6952 1 109.50000 418.400000
1239 13366 5907 1 109.50000 418.400000
1239 13366 6844 1 109.50000 418.400000
1239 13366 7547 1 109.50000 418.400000
5907 13366 6844 1 109.50000 418.400000
5907 13366 7547 1 109.50000 418.400000
6844 13366 7547 1 109.50000 418.400000
3495 13367 7548 1 109.50000 418.400000
3495 13367 7549 1 109.50000 418.400000
3495 13367 7550 1 109.50000 418.400000
7548 13367 7549 1 109.50000 418.400000
7548 13367 7550 1 109.50000 418.400000
7549 13367 7550 1 109.50000 418.400000
1702 13368 5775 1 109.50000 418.400000
1702 13368 7551 1 109.50000 418.400000
1702 13368 7552 1 109.50000 418.400000
5775 13368 7551 1 109.50000 418.400000
5775 13368 7552 1 109.50000 418.400000
7551 13368 7552 1 109.50000 418.400000
380 13369 3849 1 109.50000 418.400000
380 13369 7553 1 109.50000 418.400000
380 13369 7554 1 109.50000 418.400000
3849 13369 7553 1 109.50000 418.400000
3849 13369 7554 1 109.50000 418.400000
7553 13369 7554 1 109.50000 418.400000
132 13370 3087 1 109.50000 418.400000
132 13370 3247 1 109.50000 418.400000
132 13370 7555 1 109.50000 418.400000
3087 13370 3247 1 109.50000 418.400000
3087 13370 7555 1 109.50000 418.400000
3247 13370 7555 1 109.50000 418.400000
7483 13371 7556 1 109.50000 418.400000
7483 13371 7557 1 109.50000 418.400000
7483 13371 7558 1 109.50000 418.400000
7556 13371 7557 1 109.50000 418.400000
7556 13371 7558 1 109.50000 418.400000
7557 13371 7558 1 109.50000 418.400000
7560 13372 7561 1 109.50000 418.400000
7560 13372 7562 1 109.50000 418.400000
7560 13372 7563 1 109.50000 418.400000
7561 13372 7562 1 109.50000 418.400000
7561 13372 7563 1 109.50000 418.400000
7562 13372 7563 1 109.50000 418.400000
2759 13373 4407 1 109.50000 418.400000
2759 13373 7564 1 109.50000 418.400000
2759 13373 7565 1 109.50000 418.400000
4407 13373 7564 1 109.50000 418.400000
4407 13373 7565 1 109.50000 418.400000
7564 13373 7565 1 109.50000 418.400000
4915 13374 6716 1 109.50000 418.400000
4915 13374 7403 1 109.50000 418.400000
4915 13374 7566 1 109.50000 418.400000
6716 13374 7403 1 109.50000 418.400000
6716 13374 7566 1 109.50000 418.400000
7403 13374 7566 1 109.50000 418.400000
7128 13375 7567 1 109.50000 418.400000
7128 13375 7569 1 109.50000 418.400000
7128 13375 8469 1 109.50000 418.400000
7567 13375 7569 1 109.50000 418.400000
7567 13375 8469 1 109.50000 418.400000
7569 13375 8469 1 109.50000 418.400000
1341 13376 4199 1 109.50000 418.400000
1341 13376 7571 1 109.50000 418.400000
1341 13376 7572 1 109.50000 418.400000
4199 13376 7571 1 109.50000 418.400000
4199 13376 7572 1 109.50000 418.400000
7571 13376 7572 1 109.50000 418.400000
3803 13377 7573 1 109.50000 418.400000
3803 13377 7574 1 109.50000 418.400000
3803 13377 7575 1 109.50000 418.400000
7573 13377 7574 1 109.50000 418.400000
7573 13377 7575 1 109.50000 418.400000
7574 13377 7575 1 109.50000 418.400000
2018 13378 3322 1 109.50000 418.400000
2018 13378 4153 1 109.50000 418.400000
2018 13378 5236 1 109.50000 418.400000
3322 13378 4153 1 109.50000 418.400000
3322 13378 5236 1 109.50000 418.400000
4153 13378 5236 1 109.50000 418.400000
872 13379 3839 1 109.50000 418.400000
872 13379 6761 1 109.50000 418.400000
872 13379 6999 1 109.50000 418.400000
3839 13379 6761 1 109.50000 418.400000
3839 13379 6999 1 109.50000 418.400000
6761 13379 6999 1 109.50000 418.400000
1672 13380 4225 1 109.50000 418.400000
1672 13380 7576 1 109.50000 418.400000
1672 13380 7577 1 109.50000 418.400000
4225 13380 7576 1 109.50000 418.400000
4225 13380 7577 1 109.50000 418.400000
7576 13380 7577 1 109.50000 418.400000
805 13381 1374 1 109.50000 418.400000
805 13381 5787 1 109.50000 418.400000
805 13381 7578 1 109.50000 418.400000
1374 13381 5787 1 109.50000 418.400000
1374 13381 7578 1 109.50000 418.400000
5787 13381 7578 1 109.50000 418.400000
5646 13382 7579 1 109.50000 418.400000
5646 13382 7580 1 109.50000 418.400000
5646 13382 7581 1 109.50000 418.400000
7579 13382 7580 1 109.50000 418.400000
7579 13382 7581 1 109.50000 418.400000
7580 13382 7581 1 109.50000 418.400000
1404 13383 5350 1 109.50000 418.400000
1404 13383 7135 1 109.50000 418.400000
1404 13383 7582 1 109.50000 418.400000
5350 13383 7135 1 109.50000 418.400000
5350 13383 7582 1 109.50000 418.400000
7135 13383 7582 1 109.50000 418.400000
2089 13384 3391 1 109.50000 418.400000
2089 13384 6668 1 109.50000 418.400000
2089 13384 7583 1 109.50000 418.400000
3391 13384 6668 1 109.50000 418.400000
3391 13384 7583 1 109.50000 418.400000
6668 13384 7583 1 109.50000 418.400000
2368 13385 5086 1 109.50000 418.400000
2368 13385 7584 1 109.50000 418.400000
2368 13385 7585 1 109.50000 418.400000
5086 13385 7584 1 109.50000 418.400000
5086 13385 7585 1 109.50000 418.400000
7584 13385 7585 1 109.50000 418.400000
1422 13386 7189 1 109.50000 418.400000
1422 13386 7586 1 109.50000 418.400000
1422 13386 7587 1 109.50000 418.400000
7189 13386 7586 1 109.50000 418.400000
7189 13386 7587 1 109.50000 418.400000
7586 13386 7587 1 109.50000 418.400000
7351 13387 7588 1 109.50000 418.400000
7351 13387 7589 1 109.50000 418.400000
7351 13387 7590 1 109.50000 418.400000
7588 13387 7589 1 109.50000 418.400000
7588 13387 7590 1 109.50000 418.400000
7589 13387 7590 1 109.50000 418.400000
4752 13388 7591 1 109.50000 418.400000
4752 13388 7592 1 109.50000 418.400000
4752 13388 7593 1 109.50000 418.400000
7591 13388 7592 1 109.50000 418.400000
7591 13388 7593 1 109.50000 418.400000
7592 13388 7593 1 109.50000 418.400000
5621 13389 7594 1 109.50000 418.400000
5621 13389 7595 1 109.50000 418.400000
5621 13389 7596 1 109.50000 418.400000
7594 13389 7595 1 109.50000 418.400000
7594 13389 7596 1 109.50000 418.400000
7595 13389 7596 1 109.50000 418.400000
952 13390 2136 1 109.50000 418.400000
952 13390 7597 1 109.50000 418.400000
952 13390 7598 1 109.50000 418.400000
2136 13390 7597 1 109.50000 418.400000
2136 13390 7598 1 109.50000 418.400000
7597 13390 7598 1 109.50000 418.400000
6033 13391 6651 1 109.50000 418.400000
6033 13391 7599 1 109.50000 418.400000
6033 13391 7600 1 109.50000 418.400000
6651 13391 7599 1 109.50000 418.400000
6651 13391 7600 1 109.50000 418.400000
7599 13391 7600 1 109.50000 418.400000
189 13392 5291 1 109.50000 418.400000
189 13392 7601 1 109.50000 418.400000
189 13392 7602 1 109.50000 418.400000
5291 13392 7601 1 109.50000 418.400000
5291 13392 7602 1 109.50000 418.400000
7601 13392 7602 1 109.50000 418.400000
6164 13393 7604 1 109.50000 418.400000
6164 13393 7605 1 109.50000 418.400000
6164 13393 7606 1 109.50000 418.400000
7604 13393 7605 1 109.50000 418.400000
7604 13393 7606 1 109.50000 418.400000
7605 13393 7606 1 109.50000 418.400000
2862 13394 3173 1 109.50000 418.400000
2862 13394 4751 1 109.50000 418.400000
2862 13394 7607 1 109.50000 418.400000
3173 13394 4751 1 109.50000 418.400000
3173 13394 7607 1 109.50000 418.400000
4751 13394 7607 1 109.50000 418.400000
2739 13395 2933 1 109.50000 418.400000
2739 13395 7608 1 109.50000 418.400000
2739 13395 7609 1 109.50000 418.400000
2933 13395 7608 1 109.50000 418.400000
2933 13395 7609 1 109.50000 418.400000
7608 13395 7609 1 109.50000 418.400000
4005 13396 5367 1 109.50000 418.400000
4005 13396 7601 1 109.50000 418.400000
4005 13396 7610 1 109.50000 418.400000
5367 13396 7601 1 109.50000 418.400000
5367 13396 7610 1 109.50000 418.400000
7601 13396 7610 1 109.50000 418.400000
2875 13397 3329 1 109.50000 418.400000
2875 13397 3804 1 109.50000 418.400000
2875 13397 7611 1 109.50000 418.400000
3329 13397 3804 1 109.50000 418.400000
3329 13397 7611 1 109.50000 418.400000
3804 13397 7611 1 109.50000 418.400000
7613 13398 7614 1 109.50000 418.400000
7613 13398 10414 1 109.50000 418.400000
7613 13398 10513 1 109.50000 418.400000
7614 13398 10414 1 109.50000 418.400000
7614 13398 10513 1 109.50000 418.400000
10414 13398 10513 1 109.50000 418.400000
2093 13399 7615 1 109.50000 418.400000
2093 13399 7616 1 109.50000 418.400000
2093 13399 7617 1 109.50000 418.400000
7615 13399 7616 1 109.50000 418.400000
7615 13399 7617 1 109.50000 418.400000
7616 13399 7617 1 109.50000 418.400000
2726 13400 3699 1 109.50000 418.400000
2726 13400 6755 1 109.50000 418.400000
2726 13400 6943 1 109.50000 418.400000
3699 13400 6755 1 109.50000 418.400000
3699 13400 6943 1 109.50000 418.400000
6755 13400 6943 1 109.50000 418.400000
1401 13401 7618 1 109.50000 418.400000
1401 13401 7619 1 109.50000 418.400000
1401 13401 7620 1 109.50000 418.400000
7618 13401 7619 1 109.50000 418.400000
7618 13401 7620 1 109.50000 418.400000
7619 13401 7620 1 109.50000 418.400000
3446 13402 7621 1 109.50000 418.400000
3446 13402 7622 1 109.50000 418.400000
3446 13402 7623 1 109.50000 418.400000
7621 13402 7622 1 109.50000 418.400000
7621 13402 7623 1 109.50000 418.400000
7622 13402 7623 1 109.50000 418.400000
159 13403 7629 1 109.50000 418.400000
159 13403 7630 1 109.50000 418.400000
159 13403 7631 1 109.50000 418.400000
7629 13403 7630 1 109.50000 418.400000
7629 13403 7631 1 109.50000 418.400000
7630 13403 7631 1 109.50000 418.400000
7632 13404 7633 1 109.50000 418.400000
7632 13404 7634 1 109.50000 418.400000
7632 13404 7635 1 109.50000 418.400000
7633 13404 7634 1 109.50000 418.400000
7633 13404 7635 1 109.50000 418.400000
7634 13404 7635 1 109.50000 418.400000
5644 13405 7637 1 109.50000 418.400000
5644 13405 7638 1 109.50000 418.400000
5644 13405 7639 1 109.50000 418.400000
7637 13405 7638 1 109.50000 418.400000
7637 13405 7639 1 109.50000 418.400000
7638 13405 7639 1 109.50000 418.400000
6338 13406 7398 1 109.50000 418.400000
6338 13406 7640 1 109.50000 418.400000
6338 13406 7641 1 109.50000 418.400000
7398 13406 7640 1 109.50000 418.400000
7398 13406 7641 1 109.50000 418.400000
7640 13406 7641 1 109.50000 418.400000
5656 13407 5679 1 109.50000 418.400000
5656 13407 7642 1 109.50000 418.400000
5656 13407 7643 1 109.50000 418.400000
5679 13407 7642 1 109.50000 418.400000
5679 13407 7643 1 109.50000 418.400000
7642 13407 7643 1 109.50000 418.400000
6194 13408 7645 1 109.50000 418.400000
6194 13408 7646 1 109.50000 418.400000
6194 13408 10872 1 109.50000 418.400000
7645 13408 7646 1 109.50000 418.400000
7645 13408 10872 1 109.50000 418.400000
7646 13408 10872 1 109.50000 418.400000
1499 13409 3858 1 109.50000 418.400000
1499 13409 7647 1 109.50000 418.400000
1499 13409 7648 1 109.50000 418.400000
3858 13409 7647 1 109.50000 418.400000
3858 13409 7648 1 109.50000 418.400000
7647 13409 7648 1 109.50000 418.400000
1368 13410 4762 1 109.50000 418.400000
1368 13410 7649 1 109.50000 418.400000
1368 13410 7650 1 109.50000 418.400000
4762 13410 7649 1 109.50000 418.400000
4762 13410 7650 1 109.50000 418.400000
7649 13410 7650 1 109.50000 418.400000
5242 13411 7651 1 109.50000 418.400000
5242 13411 7652 1 109.50000 418.400000
5242 13411 7653 1 109.50000 418.400000
7651 13411 7652 1 109.50000 418.400000
7651 13411 7653 1 109.50000 418.400000
7652 13411 7653 1 109.50000 418.400000
353 13412 2357 1 109.50000 418.400000
353 13412 2976 1 109.50000 418.400000
353 13412 7654 1 109.50000 418.400000
2357 13412 2976 1 109.50000 418.400000
2357 13412 7654 1 109.50000 418.400000
2976 13412 7654 1 109.50000 418.400000
141 13413 693 1 109.50000 418.400000
141 13413 5601 1 109.50000 418.400000
141 13413 7656 1 109.50000 418.400000
693 13413 5601 1 109.50000 418.400000
693 13413 7656 1 109.50000 418.400000
5601 13413 7656 1 109.50000 418.400000
167 13414 4231 1 109.50000 418.400000
167 13414 4658 1 109.50000 418.400000
167 13414 7657 1 109.50000 418.400000
4231 13414 4658 1 109.50000 418.400000
4231 13414 7657 1 109.50000 418.400000
4658 13414 7657 1 109.50000 418.400000
3311 13415 3533 1 109.50000 418.400000
3311 13415 7659 1 109.50000 418.400000
3311 13415 7660 1 109.50000 418.400000
3533 13415 7659 1 109.50000 418.400000
3533 13415 7660 1 109.50000 418.400000
7659 13415 7660 1 109.50000 418.400000
5261 13416 7664 1 109.50000 418.400000
5261 13416 11141 1 109.50000 418.400000
5261 13416 11181 1 109.50000 418.400000
7664 13416 11141 1 109.50000 418.400000
7664 13416 11181 1 109.50000 418.400000
11141 13416 11181 1 109.50000 418.400000
2662 13417 5047 1 109.50000 418.400000
2662 13417 5115 1 109.50000 418.400000
2662 13417 7212 1 109.50000 418.400000
5047 13417 5115 1 109.50000 418.400000
5047 13417 7212 1 109.50000 418.400000
5115 13417 7212 1 109.50000 418.400000
1812 13418 4012 1 109.50000 418.400000
1812 13418 5247 1 109.50000 418.400000
1812 13418 7667 1 109.50000 418.400000
4012 13418 5247 1 109.50000 418.400000
4012 13418 7667 1 109.50000 418.400000
5247 13418 7667 1 109.50000 418.400000
495 13419 497 1 109.50000 418.400000
495 13419 6622 1 109.50000 418.400000
495 13419 7668 1 109.50000 418.400000
497 13419 6622 1 109.50000 418.400000
497 13419 7668 1 109.50000 418.400000
6622 13419 7668 1 109.50000 418.400000
5962 13420 5976 1 109.50000 418.400000
5962 13420 7671 1 109.50000 418.400000
5962 13420 9979 1 109.50000 418.400000
5976 13420 7671 1 109.50000 418.400000
5976 13420 9979 1 109.50000 418.400000
7671 13420 9979 1 109.50000 418.400000
3766 13421 4059 1 109.50000 418.400000
3766 13421 5711 1 109.50000 418.400000
3766 13421 7673 1 109.50000 418.400000
4059 13421 5711 1 109.50000 418.400000
4059 13421 7673 1 109.50000 418.400000
5711 13421 7673 1 109.50000 418.400000
5028 13422 5029 1 109.50000 418.400000
5028 13422 6323 1 109.50000 418.400000
5028 13422 7674 1 109.50000 418.400000
5029 13422 6323 1 109.50000 418.400000
5029 13422 7674 1 109.50000 418.400000
6323 13422 7674 1 109.50000 418.400000
684 13423 7675 1 109.50000 418.400000
684 13423 7676 1 109.50000 418.400000
684 13423 7677 1 109.50000 418.400000
7675 13423 7676 1 109.50000 418.400000
7675 13423 7677 1 109.50000 418.400000
7676 13423 7677 1 109.50000 418.400000
697 13424 7678 1 109.50000 418.400000
697 13424 7679 1 109.50000 418.400000
697 13424 7680 1 109.50000 418.400000
7678 13424 7679 1 109.50000 418.400000
7678 13424 7680 1 109.50000 418.400000
7679 13424 7680 1 109.50000 418.400000
725 13425 5429 1 109.50000 418.400000
725 13425 7681 1 109.50000 418.400000
725 13425 7682 1 109.50000 418.400000
5429 13425 7681 1 109.50000 418.400000
5429 13425 7682 1 109.50000 418.400000
7681 13425 7682 1 109.50000 418.400000
1550 13426 7683 1 109.50000 418.400000
1550 13426 7684 1 109.50000 418.400000
1550 13426 7685 1 109.50000 418.400000
7683 13426 7684 1 109.50000 418.400000
7683 13426 7685 1 109.50000 418.400000
7684 13426 7685 1 109.50000 418.400000
3634 13427 5303 1 109.50000 418.400000
3634 13427 5798 1 109.50000 418.400000
3634 13427 6580 1 109.50000 418.400000
5303 13427 5798 1 109.50000 418.400000
5303 13427 6580 1 109.50000 418.400000
5798 13427 6580 1 109.50000 418.400000
2858 13428 2861 1 109.50000 418.400000
2858 13428 7689 1 109.50000 418.400000
2858 13428 7690 1 109.50000 418.400000
2861 13428 7689 1 109.50000 418.400000
2861 13428 7690 1 109.50000 418.400000
7689 13428 7690 1 109.50000 418.400000
6215 13429 6696 1 109.50000 418.400000
6215 13429 7691 1 109.50000 418.400000
6215 13429 7692 1 109.50000 418.400000
6696 13429 7691 1 109.50000 418.400000
6696 13429 7692 1 109.50000 418.400000
7691 13429 7692 1 109.50000 418.400000
7694 13430 7695 1 109.50000 418.400000
7694 13430 7696 1 109.50000 418.400000
7694 13430 8801 1 109.50000 418.400000
7695 13430 7696 1 109.50000 418.400000
7695 13430 8801 1 109.50000 418.400000
7696 13430 8801 1 109.50000 418.400000
2966 13431 4196 1 109.50000 418.400000
2966 13431 7697 1 109.50000 418.400000
2966 13431 7698 1 109.50000 418.400000
4196 13431 7697 1 109.50000 418.400000
4196 13431 7698 1 109.50000 418.400000
7697 13431 7698 1 109.50000 418.400000
3261 13432 3618 1 109.50000 418.400000
3261 13432 7700 1 109.50000 418.400000
3261 13432 7701 1 109.50000 418.400000
3618 13432 7700 1 109.50000 418.400000
3618 13432 7701 1 109.50000 418.400000
7700 13432 7701 1 109.50000 418.400000
5199 13433 7479 1 109.50000 418.400000
5199 13433 7702 1 109.50000 418.400000
5199 13433 7703 1 109.50000 418.400000
7479 13433 7702 1 109.50000 418.400000
7479 13433 7703 1 109.50000 418.400000
7702 13433 7703 1 109.50000 418.400000
3097 13434 7054 1 109.50000 418.400000
3097 13434 7704 1 109.50000 418.400000
3097 13434 7705 1 109.50000 418.400000
7054 13434 7704 1 109.50000 418.400000
7054 13434 7705 1 109.50000 418.400000
7704 13434 7705 1 109.50000 418.400000
5575 13435 7491 1 109.50000 418.400000
5575 13435 7706 1 109.50000 418.400000
5575 13435 7707 1 109.50000 418.400000
7491 13435 7706 1 109.50000 418.400000
7491 13435 7707 1 109.50000 418.400000
7706 13435 7707 1 109.50000 418.400000
6443 13436 7708 1 109.50000 418.400000
6443 13436 7709 1 109.50000 418.400000
6443 13436 7710 1 109.50000 418.400000
7708 13436 7709 1 109.50000 418.400000
7708 13436 7710 1 109.50000 418.400000
7709 13436 7710 1 109.50000 418.400000
2772 13437 2773 1 109.50000 418.400000
2772 13437 7713 1 109.50000 418.400000
2772 13437 7714 1 109.50000 418.400000
2773 13437 7713 1 109.50000 418.400000
2773 13437 7714 1 109.50000 418.400000
7713 13437 7714 1 109.50000 418.400000
3008 13438 7715 1 109.50000 418.400000
3008 13438 7716 1 109.50000 418.400000
3008 13438 7717 1 109.50000 418.400000
7715 13438 7716 1 109.50000 418.400000
7715 13438 7717 1 109.50000 418.400000
7716 13438 7717 1 109.50000 418.400000
5712 13439 7718 1 109.50000 418.400000
5712 13439 7719 1 109.50000 418.400000
5712 13439 7720 1 109.50000 418.400000
7718 13439 7719 1 109.50000 418.400000
7718 13439 7720 1 109.50000 418.400000
7719 13439 7720 1 109.50000 418.400000
1836 13440 3065 1 109.50000 418.400000
1836 13440 7256 1 109.50000 418.400000
1836 13440 7721 1 109.50000 418.400000
3065 13440 7256 1 109.50000 418.400000
3065 13440 7721 1 109.50000 418.400000
7256 13440 7721 1 109.50000 418.400000
7722 13441 7723 1 109.50000 418.400000
7722 13441 7724 1 109.50000 418.400000
7722 13441 7725 1 109.50000 418.400000
7723 13441 7724 1 109.50000 418.400000
7723 13441 7725 1 109.50000 418.400000
7724 13441 7725 1 109.50000 418.400000
4362 13442 7726 1 109.50000 418.400000
4362 13442 7727 1 109.50000 418.400000
4362 13442 7728 1 109.50000 418.400000
7726 13442 7727 1 109.50000 418.400000
7726 13442 7728 1 109.50000 418.400000
7727 13442 7728 1 109.50000 418.400000
6028 13443 6051 1 109.50000 418.400000
6028 13443 7729 1 109.50000 418.400000
6028 13443 7730 1 109.50000 418.400000
6051 13443 7729 1 109.50000 418.400000
6051 13443 7730 1 109.50000 418.400000
7729 13443 7730 1 109.50000 418.400000
1437 13444 4166 1 109.50000 418.400000
1437 13444 6888 1 109.50000 418.400000
1437 13444 7731 1 109.50000 418.400000
4166 13444 6888 1 109.50000 418.400000
4166 13444 7731 1 109.50000 418.400000
6888 13444 7731 1 109.50000 418.400000
931 13445 7735 1 109.50000 418.400000
931 13445 7736 1 109.50000 418.400000
931 13445 7737 1 109.50000 418.400000
7735 13445 7736 1 109.50000 418.400000
7735 13445 7737 1 109.50000 418.400000
7736 13445 7737 1 109.50000 418.400000
6963 13446 6964 1 109.50000 418.400000
6963 13446 7738 1 109.50000 418.400000
6963 13446 7740 1 109.50000 418.400000
6964 13446 7738 1 109.50000 418.400000
6964 13446 7740 1 109.50000 418.400000
7738 13446 7740 1 109.50000 418.400000
7741 13447 7742 1 109.50000 418.400000
7741 13447 7743 1 109.50000 418.400000
7741 13447 7744 1 109.50000 418.400000
7742 13447 7743 1 109.50000 418.400000
7742 13447 7744 1 109.50000 418.400000
7743 13447 7744 1 109.50000 418.400000
1546 13448 1628 1 109.50000 418.400000
1546 13448 5328 1 109.50000 418.400000
1546 13448 7745 1 109.50000 418.400000
1628 13448 5328 1 109.50000 418.400000
1628 13448 7745 1 109.50000 418.400000
5328 13448 7745 1 109.50000 418.400000
7746 13449 7747 1 109.50000 418.400000
7746 13449 7748 1 109.50000 418.400000
7746 13449 7749 1 109.50000 418.400000
7747 13449 7748 1 109.50000 418.400000
7747 13449 7749 1 109.50000 418.400000
7748 13449 7749 1 109.50000 418.400000
131 13450 4197 1 109.50000 418.400000
131 13450 4376 1 109.50000 418.400000
131 13450 5918 1 109.50000 418.400000
4197 13450 4376 1 109.50000 418.400000
4197 13450 5918 1 109.50000 418.400000
4376 13450 5918 1 109.50000 418.400000
3403 13451 6023 1 109.50000 418.400000
3403 13451 7750 1 109.50000 418.400000
3403 13451 7751 1 109.50000 418.400000
6023 13451 7750 1 109.50000 418.400000
6023 13451 7751 1 109.50000 418.400000
7750 13451 7751 1 109.50000 418.400000
1952 13452 7752 1 109.50000 418.400000
1952 13452 7753 1 109.50000 418.400000
1952 13452 7754 1 109.50000 418.400000
7752 13452 7753 1 109.50000 418.400000
7752 13452 7754 1 109.50000 418.400000
7753 13452 7754 1 109.50000 418.400000
3698 13453 7755 1 109.50000 418.400000
3698 13453 7756 1 109.50000 418.400000
3698 13453 7757 1 109.50000 418.400000
7755 13453 7756 1 109.50000 418.400000
7755 13453 7757 1 109.50000 418.400000
7756 13453 7757 1 109.50000 418.400000
1507 13454 4319 1 109.50000 418.400000
1507 13454 4320 1 109.50000 418.400000
1507 13454 7758 1 109.50000 418.400000
4319 13454 4320 1 109.50000 418.400000
4319 13454 7758 1 109.50000 418.400000
4320 13454 7758 1 109.50000 418.400000
5010 13455 5011 1 109.50000 418.400000
5010 13455 6789 1 109.50000 418.400000
5010 13455 7760 1 109.50000 418.400000
5011 13455 6789 1 109.50000 418.400000
5011 13455 7760 1 109.50000 418.400000
6789 13455 7760 1 109.50000 418.400000
657 13456 1619 1 109.50000 418.400000
657 13456 1620 1 109.50000 418.400000
657 13456 4846 1 109.50000 418.400000
1619 13456 1620 1 109.50000 418.400000
1619 13456 4846 1 109.50000 418.400000
1620 13456 4846 1 109.50000 418.400000
4933 13457 7762 1 109.50000 418.400000
4933 13457 7764 1 109.50000 418.400000
4933 13457 8150 1 109.50000 418.400000
7762 13457 7764 1 109.50000 418.400000
7762 13457 8150 1 109.50000 418.400000
7764 13457 8150 1 109.50000 418.400000
1609 13458 1612 1 109.50000 418.400000
1609 13458 7766 1 109.50000 418.400000
1609 13458 7767 1 109.50000 418.400000
1612 13458 7766 1 109.50000 418.400000
1612 13458 7767 1 109.50000 418.400000
7766 13458 7767 1 109.50000 418.400000
1570 13459 3969 1 109.50000 418.400000
1570 13459 7367 1 109.50000 418.400000
1570 13459 7768 1 109.50000 418.400000
3969 13459 7367 1 109.50000 418.400000
3969 13459 7768 1 109.50000 418.400000
7367 13459 7768 1 109.50000 418.400000
4592 13460 7771 1 109.50000 418.400000
4592 13460 7772 1 109.50000 418.400000
4592 13460 7773 1 109.50000 418.400000
7771 13460 7772 1 109.50000 418.400000
7771 13460 7773 1 109.50000 418.400000
7772 13460 7773 1 109.50000 418.400000
1066 13461 6957 1 109.50000 418.400000
1066 13461 7775 1 109.50000 418.400000
1066 13461 7776 1 109.50000 418.400000
6957 13461 7775 1 109.50000 418.400000
6957 13461 7776 1 109.50000 418.400000
7775 13461 7776 1 109.50000 418.400000
3953 13462 4260 1 109.50000 418.400000
3953 13462 5193 1 109.50000 418.400000
3953 13462 7777 1 109.50000 418.400000
4260 13462 5193 1 109.50000 418.400000
4260 13462 7777 1 109.50000 418.400000
5193 13462 7777 1 109.50000 418.400000
2267 13463 6592 1 109.50000 418.400000
2267 13463 7778 1 109.50000 418.400000
2267 13463 7779 1 109.50000 418.400000
6592 13463 7778 1 109.50000 418.400000
6592 13463 7779 1 109.50000 418.400000
7778 13463 7779 1 109.50000 418.400000
7326 13464 7328 1 109.50000 418.400000
7326 13464 7780 1 109.50000 418.400000
7326 13464 7782 1 109.50000 418.400000
7328 13464 7780 1 109.50000 418.400000
7328 13464 7782 1 109.50000 418.400000
7780 13464 7782 1 109.50000 418.400000
2243 13465 7169 1 109.50000 418.400000
2243 13465 7786 1 109.50000 418.400000
2243 13465 7787 1 109.50000 418.400000
7169 13465 7786 1 109.50000 418.400000
7169 13465 7787 1 109.50000 418.400000
7786 13465 7787 1 109.50000 418.400000
7492 13466 7788 1 109.50000 418.400000
7492 13466 7789 1 109.50000 418.400000
7492 13466 7790 1 109.50000 418.400000
7788 13466 7789 1 109.50000 418.400000
7788 13466 7790 1 109.50000 418.400000
7789 13466 7790 1 109.50000 418.400000
5518 13467 6024 1 109.50000 418.400000
5518 13467 6652 1 109.50000 418.400000
5518 13467 7791 1 109.50000 418.400000
6024 13467 6652 1 109.50000 418.400000
6024 13467 7791 1 109.50000 418.400000
6652 13467 7791 1 109.50000 418.400000
4797 13468 6583 1 109.50000 418.400000
4797 13468 7453 1 109.50000 418.400000
4797 13468 7792 1 109.50000 418.400000
6583 13468 7453 1 109.50000 418.400000
6583 13468 7792 1 109.50000 418.400000
7453 13468 7792 1 109.50000 418.400000
6986 13469 7793 1 109.50000 418.400000
6986 13469 7794 1 109.50000 418.400000
6986 13469 7795 1 109.50000 418.400000
7793 13469 7794 1 109.50000 418.400000
7793 13469 7795 1 109.50000 418.400000
7794 13469 7795 1 109.50000 418.400000
4926 13470 5934 1 109.50000 418.400000
4926 13470 7796 1 109.50000 418.400000
4926 13470 7797 1 109.50000 418.400000
5934 13470 7796 1 109.50000 418.400000
5934 13470 7797 1 109.50000 418.400000
7796 13470 7797 1 109.50000 418.400000
1590 13471 4048 1 109.50000 418.400000
1590 13471 6551 1 109.50000 418.400000
1590 13471 6552 1 109.50000 418.400000
4048 13471 6551 1 109.50000 418.400000
4048 13471 6552 1 109.50000 418.400000
6551 13471 6552 1 109.50000 418.400000
5881 13472 7186 1 109.50000 418.400000
5881 13472 7798 1 109.50000 418.400000
5881 13472 7799 1 109.50000 418.400000
7186 13472 7798 1 109.50000 418.400000
7186 13472 7799 1 109.50000 418.400000
7798 13472 7799 1 109.50000 418.400000
2315 13473 6753 1 109.50000 418.400000
2315 13473 7801 1 109.50000 418.400000
2315 13473 7802 1 109.50000 418.400000
6753 13473 7801 1 109.50000 418.400000
6753 13473 7802 1 109.50000 418.400000
7801 13473 7802 1 109.50000 418.400000
4883 13474 5535 1 109.50000 418.400000
4883 13474 7178 1 109.50000 418.400000
4883 13474 7803 1 109.50000 418.400000
5535 13474 7178 1 109.50000 418.400000
5535 13474 7803 1 109.50000 418.400000
7178 13474 7803 1 109.50000 418.400000
1268 13475 1335 1 109.50000 418.400000
1268 13475 4324 1 109.50000 418.400000
1268 13475 7804 1 109.50000 418.400000
1335 13475 4324 1 109.50000 418.400000
1335 13475 7804 1 109.50000 418.400000
4324 13475 7804 1 109.50000 418.400000
5121 13476 5486 1 109.50000 418.400000
5121 13476 5774 1 109.50000 418.400000
5121 13476 7807 1 109.50000 418.400000
5486 13476 5774 1 109.50000 418.400000
5486 13476 7807 1 109.50000 418.400000
5774 13476 7807 1 109.50000 418.400000
7808 13477 7809 1 109.50000 418.400000
7808 13477 7810 1 109.50000 418.400000
7808 13477 7811 1 109.50000 418.400000
7809 13477 7810 1 109.50000 418.400000
7809 13477 7811 1 109.50000 418.400000
7810 13477 7811 1 109.50000 418.400000
93 13478 4873 1 109.50000 418.400000
93 13478 7814 1 109.50000 418.400000
93 13478 7815 1 109.50000 418.400000
4873 13478 7814 1 109.50000 418.400000
4873 13478 7815 1 109.50000 418.400000
7814 13478 7815 1 109.50000 418.400000
899 13479 933 1 109.50000 418.400000
899 13479 7816 1 109.50000 418.400000
899 13479 7817 1 109.50000 418.400000
933 13479 7816 1 109.50000 418.400000
933 13479 7817 1 109.50000 418.400000
7816 13479 7817 1 109.50000 418.400000
3629 13480 3630 1 109.50000 418.400000
3629 13480 6010 1 109.50000 418.400000
3629 13480 6662 1 109.50000 418.400000
3630 13480 6010 1 109.50000 418.400000
3630 13480 6662 1 109.50000 418.400000
6010 13480 6662 1 109.50000 418.400000
3554 13481 5002 1 109.50000 418.400000
3554 13481 7821 1 109.50000 418.400000
3554 13481 7822 1 109.50000 418.400000
5002 13481 7821 1 109.50000 418.400000
5002 13481 7822 1 109.50000 418.400000
7821 13481 7822 1 109.50000 418.400000
7565 13482 7823 1 109.50000 418.400000
7565 13482 7824 1 109.50000 418.400000
7565 13482 7825 1 109.50000 418.400000
7823 13482 7824 1 109.50000 418.400000
7823 13482 7825 1 109.50000 418.400000
7824 13482 7825 1 109.50000 418.400000
1552 13483 4783 1 109.50000 418.400000
1552 13483 7103 1 109.50000 418.400000
1552 13483 7590 1 109.50000 418.400000
4783 13483 7103 1 109.50000 418.400000
4783 13483 7590 1 109.50000 418.400000
7103 13483 7590 1 109.50000 418.400000
5780 13484 6084 1 109.50000 418.400000
5780 13484 7826 1 109.50000 418.400000
5780 13484 7827 1 109.50000 418.400000
6084 13484 7826 1 109.50000 418.400000
6084 13484 7827 1 109.50000 418.400000
7826 13484 7827 1 109.50000 418.400000
1913 13485 5958 1 109.50000 418.400000
1913 13485 7828 1 109.50000 418.400000
1913 13485 7829 1 109.50000 418.400000
5958 13485 7828 1 109.50000 418.400000
5958 13485 7829 1 109.50000 418.400000
7828 13485 7829 1 109.50000 418.400000
3943 13486 7386 1 109.50000 418.400000
3943 13486 7830 1 109.50000 418.400000
3943 13486 7831 1 109.50000 418.400000
7386 13486 7830 1 109.50000 418.400000
7386 13486 7831 1 109.50000 418.400000
7830 13486 7831 1 109.50000 418.400000
187 13487 5144 1 109.50000 418.400000
187 13487 7650 1 109.50000 418.400000
187 13487 7833 1 109.50000 418.400000
5144 13487 7650 1 109.50000 418.400000
5144 13487 7833 1 109.50000 418.400000
7650 13487 7833 1 109.50000 418.400000
1663 13488 7834 1 109.50000 418.400000
1663 13488 7835 1 109.50000 418.400000
1663 13488 7836 1 109.50000 418.400000
7834 13488 7835 1 109.50000 418.400000
7834 13488 7836 1 109.50000 418.400000
7835 13488 7836 1 109.50000 418.400000
1276 13489 1995 1 109.50000 418.400000
1276 13489 7837 1 109.50000 418.400000
1276 13489 7838 1 109.50000 418.400000
1995 13489 7837 1 109.50000 418.400000
1995 13489 7838 1 109.50000 418.400000
7837 13489 7838 1 109.50000 418.400000
3817 13490 5383 1 109.50000 418.400000
3817 13490 7173 1 109.50000 418.400000
3817 13490 7839 1 109.50000 418.400000
5383 13490 7173 1 109.50000 418.400000
5383 13490 7839 1 109.50000 418.400000
7173 13490 7839 1 109.50000 418.400000
2224 13491 2377 1 109.50000 418.400000
2224 13491 7840 1 109.50000 418.400000
2224 13491 7841 1 109.50000 418.400000
2377 13491 7840 1 109.50000 418.400000
2377 13491 7841 1 109.50000 418.400000
7840 13491 7841 1 109.50000 418.400000
1117 13492 1510 1 109.50000 418.400000
1117 13492 7846 1 109.50000 418.400000
1117 13492 7847 1 109.50000 418.400000
1510 13492 7846 1 109.50000 418.400000
1510 13492 7847 1 109.50000 418.400000
7846 13492 7847 1 109.50000 418.400000
6537 13493 7847 1 109.50000 418.400000
6537 13493 7848 1 109.50000 418.400000
6537 13493 7849 1 109.50000 418.400000
7847 13493 7848 1 109.50000 418.400000
7847 13493 7849 1 109.50000 418.400000
7848 13493 7849 1 109.50000 418.400000
2304 13494 7850 1 109.50000 418.400000
2304 13494 7852 1 109.50000 418.400000
2304 13494 9974 1 109.50000 418.400000
7850 13494 7852 1 109.50000 418.400000
7850 13494 9974 1 109.50000 418.400000
7852 13494 9974 1 109.50000 418.400000
3962 13495 6311 1 109.50000 418.400000
3962 13495 6851 1 109.50000 418.400000
3962 13495 7853 1 109.50000 418.400000
6311 13495 6851 1 109.50000 418.400000
6311 13495 7853 1 109.50000 418.400000
6851 13495 7853 1 109.50000 418.400000
1874 13496 3984 1 109.50000 418.400000
1874 13496 7854 1 109.50000 418.400000
1874 13496 7855 1 109.50000 418.400000
3984 13496 7854 1 109.50000 418.400000
3984 13496 7855 1 109.50000 418.400000
7854 13496 7855 1 109.50000 418.400000
7162 13497 7856 1 109.50000 418.400000
7162 13497 7857 1 109.50000 418.400000
7162 13497 7858 1 109.50000 418.400000
7856 13497 7857 1 109.50000 418.400000
7856 13497 7858 1 109.50000 418.400000
7857 13497 7858 1 109.50000 418.400000
5416 13498 6547 1 109.50000 418.400000
5416 13498 7860 1 109.50000 418.400000
5416 13498 7861 1 109.50000 418.400000
6547 13498 7860 1 109.50000 418.400000
6547 13498 7861 1 109.50000 418.400000
7860 13498 7861 1 109.50000 418.400000
3191 13499 7862 1 109.50000 418.400000
3191 13499 7863 1 109.50000 418.400000
3191 13499 7864 1 109.50000 418.400000
7862 13499 7863 1 109.50000 418.400000
7862 13499 7864 1 109.50000 418.400000
7863 13499 7864 1 109.50000 418.400000
7865 13500 7866 1 109.50000 418.400000
7865 13500 7867 1 109.50000 418.400000
7865 13500 7868 1 109.50000 418.400000
7866 13500 7867 1 109.50000 418.400000
7866 13500 7868 1 109.50000 418.400000
7867 13500 7868 1 109.50000 418.400000
3344 13501 3561 1 109.50000 418.400000
3344 13501 5630 1 109.50000 418.400000
3344 13501 5871 1 109.50000 418.400000
3561 13501 5630 1 109.50000 418.400000
3561 13501 5871 1 109.50000 418.400000
5630 13501 5871 1 109.50000 418.400000
4483 13502 7201 1 109.50000 418.400000
4483 13502 7869 1 109.50000 418.400000
4483 13502 7870 1 109.50000 418.400000
7201 13502 7869 1 109.50000 418.400000
7201 13502 7870 1 109.50000 418.400000
7869 13502 7870 1 109.50000 418.400000
2576 13503 5052 1 109.50000 418.400000
2576 13503 7871 1 109.50000 418.400000
2576 13503 7872 1 109.50000 418.400000
5052 13503 7871 1 109.50000 418.400000
5052 13503 7872 1 109.50000 418.400000
7871 13503 7872 1 109.50000 418.400000
5604 13504 6277 1 109.50000 418.400000
5604 13504 7873 1 109.50000 418.400000
5604 13504 7874 1 109.50000 418.400000
6277 13504 7873 1 109.50000 418.400000
6277 13504 7874 1 109.50000 418.400000
7873 13504 7874 1 109.50000 418.400000
4213 13505 7875 1 109.50000 418.400000
4213 13505 7876 1 109.50000 418.400000
4213 13505 7877 1 109.50000 418.400000
7875 13505 7876 1 109.50000 418.400000
7875 13505 7877 1 109.50000 418.400000
7876 13505 7877 1 109.50000 418.400000
6121 13506 7878 1 109.50000 418.400000
6121 13506 7879 1 109.50000 418.400000
6121 13506 7880 1 109.50000 418.400000
7878 13506 7879 1 109.50000 418.400000
7878 13506 7880 1 109.50000 418.400000
7879 13506 7880 1 109.50000 418.400000
3938 13507 5903 1 109.50000 418.400000
3938 13507 7881 1 109.50000 418.400000
3938 13507 7882 1 109.50000 418.400000
5903 13507 7881 1 109.50000 418.400000
5903 13507 7882 1 109.50000 418.400000
7881 13507 7882 1 109.50000 418.400000
5210 13508 7883 1 109.50000 418.400000
5210 13508 7884 1 109.50000 418.400000
5210 13508 7885 1 109.50000 418.400000
7883 13508 7884 1 109.50000 418.400000
7883 13508 7885 1 109.50000 418.400000
7884 13508 7885 1 109.50000 418.400000
1765 13509 7886 1 109.50000 418.400000
1765 13509 7887 1 109.50000 418.400000
1765 13509 7888 1 109.50000 418.400000
7886 13509 7887 1 109.50000 418.400000
7886 13509 7888 1 109.50000 418.400000
7887 13509 7888 1 109.50000 418.400000
6003 13510 7889 1 109.50000 418.400000
6003 13510 7890 1 109.50000 418.400000
6003 13510 7891 1 109.50000 418.400000
7889 13510 7890 1 109.50000 418.400000
7889 13510 7891 1 109.50000 418.400000
7890 13510 7891 1 109.50000 418.400000
5335 13511 7892 1 109.50000 418.400000
5335 13511 7893 1 109.50000 418.400000
5335 13511 7894 1 109.50000 418.400000
7892 13511 7893 1 109.50000 418.400000
7892 13511 7894 1 109.50000 418.400000
7893 13511 7894 1 109.50000 418.400000
6750 13512 7895 1 109.50000 418.400000
6750 13512 7896 1 109.50000 418.400000
6750 13512 7897 1 109.50000 418.400000
7895 13512 7896 1 109.50000 418.400000
7895 13512 7897 1 109.50000 418.400000
7896 13512 7897 1 109.50000 418.400000
1185 13513 7898 1 109.50000 418.400000
1185 13513 7899 1 109.50000 418.400000
1185 13513 7900 1 109.50000 418.400000
7898 13513 7899 1 109.50000 418.400000
7898 13513 7900 1 109.50000 418.400000
7899 13513 7900 1 109.50000 418.400000
82 13514 2642 1 109.50000 418.400000
82 13514 5387 1 109.50000 418.400000
82 13514 7901 1 109.50000 418.400000
2642 13514 5387 1 109.50000 418.400000
2642 13514 7901 1 109.50000 418.400000
5387 13514 7901 1 109.50000 418.400000
16 13515 3166 1 109.50000 418.400000
16 13515 7902 1 109.50000 418.400000
16 13515 7903 1 109.50000 418.400000
3166 13515 7902 1 109.50000 418.400000
3166 13515 7903 1 109.50000 418.400000
7902 13515 7903 1 109.50000 418.400000
1604 13516 4907 1 109.50000 418.400000
1604 13516 7904 1 109.50000 418.400000
1604 13516 7905 1 109.50000 418.400000
4907 13516 7904 1 109.50000 418.400000
4907 13516 7905 1 109.50000 418.400000
7904 13516 7905 1 109.50000 418.400000
2332 13517 2906 1 109.50000 418.400000
2332 13517 7662 1 109.50000 418.400000
2332 13517 7844 1 109.50000 418.400000
2906 13517 7662 1 109.50000 418.400000
2906 13517 7844 1 109.50000 418.400000
7662 13517 7844 1 109.50000 418.400000
1457 13518 6788 1 109.50000 418.400000
1457 13518 7906 1 109.50000 418.400000
1457 13518 7907 1 109.50000 418.400000
6788 13518 7906 1 109.50000 418.400000
6788 13518 7907 1 109.50000 418.400000
7906 13518 7907 1 109.50000 418.400000
2299 13519 7136 1 109.50000 418.400000
2299 13519 7909 1 109.50000 418.400000
2299 13519 7910 1 109.50000 418.400000
7136 13519 7909 1 109.50000 418.400000
7136 13519 7910 1 109.50000 418.400000
7909 13519 7910 1 109.50000 418.400000
3260 13520 3510 1 109.50000 418.400000
3260 13520 7911 1 109.50000 418.400000
3260 13520 7912 1 109.50000 418.400000
3510 13520 7911 1 109.50000 418.400000
3510 13520 7912 1 109.50000 418.400000
7911 13520 7912 1 109.50000 418.400000
7855 13521 7913 1 109.50000 418.400000
7855 13521 7914 1 109.50000 418.400000
7855 13521 7915 1 109.50000 418.400000
7913 13521 7914 1 109.50000 418.400000
7913 13521 7915 1 109.50000 418.400000
7914 13521 7915 1 109.50000 418.400000
3098 13522 5528 1 109.50000 418.400000
3098 13522 7916 1 109.50000 418.400000
3098 13522 7917 1 109.50000 418.400000
5528 13522 7916 1 109.50000 418.400000
5528 13522 7917 1 109.50000 418.400000
7916 13522 7917 1 109.50000 418.400000
7426 13523 7918 1 109.50000 418.400000
7426 13523 7919 1 109.50000 418.400000
7426 13523 7920 1 109.50000 418.400000
7918 13523 7919 1 109.50000 418.400000
7918 13523 7920 1 109.50000 418.400000
7919 13523 7920 1 109.50000 418.400000
4280 13524 7547 1 109.50000 418.400000
4280 13524 7921 1 109.50000 418.400000
4280 13524 7922 1 109.50000 418.400000
7547 13524 7921 1 109.50000 418.400000
7547 13524 7922 1 109.50000 418.400000
7921 13524 7922 1 109.50000 418.400000
257 13525 7923 1 109.50000 418.400000
257 13525 7924 1 109.50000 418.400000
257 13525 7925 1 109.50000 418.400000
7923 13525 7924 1 109.50000 418.400000
7923 13525 7925 1 109.50000 418.400000
7924 13525 7925 1 109.50000 418.400000
1363 13526 2281 1 109.50000 418.400000
1363 13526 4705 1 109.50000 418.400000
1363 13526 7926 1 109.50000 418.400000
2281 13526 4705 1 109.50000 418.400000
2281 13526 7926 1 109.50000 418.400000
4705 13526 7926 1 109.50000 418.400000
2158 13527 4629 1 109.50000 418.400000
2158 13527 7927 1 109.50000 418.400000
2158 13527 7928 1 109.50000 418.400000
4629 13527 7927 1 109.50000 418.400000
4629 13527 7928 1 109.50000 418.400000
7927 13527 7928 1 109.50000 418.400000
625 13528 7929 1 109.50000 418.400000
625 13528 7930 1 109.50000 418.400000
625 13528 7931 1 109.50000 418.400000
7929 13528 7930 1 109.50000 418.400000
7929 13528 7931 1 109.50000 418.400000
7930 13528 7931 1 109.50000 418.400000
3298 13529 7934 1 109.50000 418.400000
3298 13529 7935 1 109.50000 418.400000
3298 13529 7936 1 109.50000 418.400000
7934 13529 7935 1 109.50000 418.400000
7934 13529 7936 1 109.50000 418.400000
7935 13529 7936 1 109.50000 418.400000
7894 13530 7937 1 109.50000 418.400000
7894 13530 7938 1 109.50000 418.400000
7894 13530 7939 1 109.50000 418.400000
7937 13530 7938 1 109.50000 418.400000
7937 13530 7939 1 109.50000 418.400000
7938 13530 7939 1 109.50000 418.400000
1194 13531 5094 1 109.50000 418.400000
1194 13531 7940 1 109.50000 418.400000
1194 13531 7941 1 109.50000 418.400000
5094 13531 7940 1 109.50000 418.400000
5094 13531 7941 1 109.50000 418.400000
7940 13531 7941 1 109.50000 418.400000
4634 13532 7516 1 109.50000 418.400000
4634 13532 7777 1 109.50000 418.400000
4634 13532 7942 1 109.50000 418.400000
7516 13532 7777 1 109.50000 418.400000
7516 13532 7942 1 109.50000 418.400000
7777 13532 7942 1 109.50000 418.400000
3511 13533 7239 1 109.50000 418.400000
3511 13533 7943 1 109.50000 418.400000
3511 13533 7944 1 109.50000 418.400000
7239 13533 7943 1 109.50000 418.400000
7239 13533 7944 1 109.50000 418.400000
7943 13533 7944 1 109.50000 418.400000
4708 13534 7946 1 109.50000 418.400000
4708 13534 7947 1 109.50000 418.400000
4708 13534 7948 1 109.50000 418.400000
7946 13534 7947 1 109.50000 418.400000
7946 13534 7948 1 109.50000 418.400000
7947 13534 7948 1 109.50000 418.400000
630 13535 2815 1 109.50000 418.400000
630 13535 2817 1 109.50000 418.400000
630 13535 7949 1 109.50000 418.400000
2815 13535 2817 1 109.50000 418.400000
2815 13535 7949 1 109.50000 418.400000
2817 13535 7949 1 109.50000 418.400000
5820 13536 6461 1 109.50000 418.400000
5820 13536 6611 1 109.50000 418.400000
5820 13536 7950 1 109.50000 418.400000
6461 13536 6611 1 109.50000 418.400000
6461 13536 7950 1 109.50000 418.400000
6611 13536 7950 1 109.50000 418.400000
6402 13537 7951 1 109.50000 418.400000
6402 13537 7952 1 109.50000 418.400000
6402 13537 7953 1 109.50000 418.400000
7951 13537 7952 1 109.50000 418.400000
7951 13537 7953 1 109.50000 418.400000
7952 13537 7953 1 109.50000 418.400000
3351 13538 5490 1 109.50000 418.400000
3351 13538 5593 1 109.50000 418.400000
3351 13538 7954 1 109.50000 418.400000
5490 13538 5593 1 109.50000 418.400000
5490 13538 7954 1 109.50000 418.400000
5593 13538 7954 1 109.50000 418.400000
2117 13539 2118 1 109.50000 418.400000
2117 13539 5311 1 109.50000 418.400000
2117 13539 7955 1 109.50000 418.400000
2118 13539 5311 1 109.50000 418.400000
2118 13539 7955 1 109.50000 418.400000
5311 13539 7955 1 109.50000 418.400000
5140 13540 7957 1 109.50000 418.400000
5140 13540 7958 1 109.50000 418.400000
5140 13540 7959 1 109.50000 418.400000
7957 13540 7958 1 109.50000 418.400000
7957 13540 7959 1 109.50000 418.400000
7958 13540 7959 1 109.50000 418.400000
2205 13541 4171 1 109.50000 418.400000
2205 13541 7960 1 109.50000 418.400000
2205 13541 7961 1 109.50000 418.400000
4171 13541 7960 1 109.50000 418.400000
4171 13541 7961 1 109.50000 418.400000
7960 13541 7961 1 109.50000 418.400000
71 13542 777 1 109.50000 418.400000
71 13542 778 1 109.50000 418.400000
71 13542 7962 1 109.50000 418.400000
777 13542 778 1 109.50000 418.400000
777 13542 7962 1 109.50000 418.400000
778 13542 7962 1 109.50000 418.400000
7963 13543 7964 1 109.50000 418.400000
7963 13543 7965 1 109.50000 418.400000
7963 13543 7966 1 109.50000 418.400000
7964 13543 7965 1 109.50000 418.400000
7964 13543 7966 1 109.50000 418.400000
7965 13543 7966 1 109.50000 418.400000
5369 13544 6800 1 109.50000 418.400000
5369 13544 7967 1 109.50000 418.400000
5369 13544 7968 1 109.50000 418.400000
6800 13544 7967 1 109.50000 418.400000
6800 13544 7968 1 109.50000 418.400000
7967 13544 7968 1 109.50000 418.400000
2713 13545 4084 1 109.50000 418.400000
2713 13545 4135 1 109.50000 418.400000
2713 13545 5120 1 109.50000 418.400000
4084 13545 4135 1 109.50000 418.400000
4084 13545 5120 1 109.50000 418.400000
4135 13545 5120 1 109.50000 418.400000
3165 13546 7969 1 109.50000 418.400000
3165 13546 7970 1 109.50000 418.400000
3165 13546 7971 1 109.50000 418.400000
7969 13546 7970 1 109.50000 418.400000
7969 13546 7971 1 109.50000 418.400000
7970 13546 7971 1 109.50000 418.400000
1673 13547 4295 1 109.50000 418.400000
1673 13547 7974 1 109.50000 418.400000
1673 13547 9837 1 109.50000 418.400000
4295 13547 7974 1 109.50000 418.400000
4295 13547 9837 1 109.50000 418.400000
7974 13547 9837 1 109.50000 418.400000
5023 13548 7208 1 109.50000 418.400000
5023 13548 7975 1 109.50000 418.400000
5023 13548 7976 1 109.50000 418.400000
7208 13548 7975 1 109.50000 418.400000
7208 13548 7976 1 109.50000 418.400000
7975 13548 7976 1 109.50000 418.400000
3202 13549 3666 1 109.50000 418.400000
3202 13549 7870 1 109.50000 418.400000
3202 13549 7977 1 109.50000 418.400000
3666 13549 7870 1 109.50000 418.400000
3666 13549 7977 1 109.50000 418.400000
7870 13549 7977 1 109.50000 418.400000
3595 13550 7978 1 109.50000 418.400000
3595 13550 7979 1 109.50000 418.400000
3595 13550 7980 1 109.50000 418.400000
7978 13550 7979 1 109.50000 418.400000
7978 13550 7980 1 109.50000 418.400000
7979 13550 7980 1 109.50000 418.400000
780 13551 1209 1 109.50000 418.400000
780 13551 6123 1 109.50000 418.400000
780 13551 7981 1 109.50000 418.400000
1209 13551 6123 1 109.50000 418.400000
1209 13551 7981 1 109.50000 418.400000
6123 13551 7981 1 109.50000 418.400000
297 13552 3682 1 109.50000 418.400000
297 13552 7982 1 109.50000 418.400000
297 13552 7983 1 109.50000 418.400000
3682 13552 7982 1 109.50000 418.400000
3682 13552 7983 1 109.50000 418.400000
7982 13552 7983 1 109.50000 418.400000
225 13553 7048 1 109.50000 418.400000
225 13553 7984 1 109.50000 418.400000
225 13553 7985 1 109.50000 418.400000
7048 13553 7984 1 109.50000 418.400000
7048 13553 7985 1 109.50000 418.400000
7984 13553 7985 1 109.50000 418.400000
6905 13554 7986 1 109.50000 418.400000
6905 13554 7987 1 109.50000 418.400000
6905 13554 7988 1 109.50000 418.400000
7986 13554 7987 1 109.50000 418.400000
7986 13554 7988 1 109.50000 418.400000
7987 13554 7988 1 109.50000 418.400000
1529 13555 7989 1 109.50000 418.400000
1529 13555 7990 1 109.50000 418.400000
1529 13555 7991 1 109.50000 418.400000
7989 13555 7990 1 109.50000 418.400000
7989 13555 7991 1 109.50000 418.400000
7990 13555 7991 1 109.50000 418.400000
27 13556 2877 1 109.50000 418.400000
27 13556 7992 1 109.50000 418.400000
27 13556 7993 1 109.50000 418.400000
2877 13556 7992 1 109.50000 418.400000
2877 13556 7993 1 109.50000 418.400000
7992 13556 7993 1 109.50000 418.400000
3655 13557 3657 1 109.50000 418.400000
3655 13557 5882 1 109.50000 418.400000
3655 13557 7994 1 109.50000 418.400000
3657 13557 5882 1 109.50000 418.400000
3657 13557 7994 1 109.50000 418.400000
5882 13557 7994 1 109.50000 418.400000
3252 13558 7995 1 109.50000 418.400000
3252 13558 7996 1 109.50000 418.400000
3252 13558 7997 1 109.50000 418.400000
7995 13558 7996 1 109.50000 418.400000
7995 13558 7997 1 109.50000 418.400000
7996 13558 7997 1 109.50000 418.400000
148 13559 7998 1 109.50000 418.400000
148 13559 7999 1 109.50000 418.400000
148 13559 8000 1 109.50000 418.400000
7998 13559 7999 1 109.50000 418.400000
7998 13559 8000 1 109.50000 418.400000
7999 13559 8000 1 109.50000 418.400000
1491 13560 4271 1 109.50000 418.400000
1491 13560 6243 1 109.50000 418.400000
1491 13560 7182 1 109.50000 418.400000
4271 13560 6243 1 109.50000 418.400000
4271 13560 7182 1 109.50000 418.400000
6243 13560 7182 1 109.50000 418.400000
4720 13561 8001 1 109.50000 418.400000
4720 13561 8002 1 109.50000 418.400000
4720 13561 8003 1 109.50000 418.400000
8001 13561 8002 1 109.50000 418.400000
8001 13561 8003 1 109.50000 418.400000
8002 13561 8003 1 109.50000 418.400000
8004 13562 8005 1 109.50000 418.400000
8004 13562 8006 1 109.50000 418.400000
8004 13562 8007 1 109.50000 418.400000
8005 13562 8006 1 109.50000 418.400000
8005 13562 8007 1 109.50000 418.400000
8006 13562 8007 1 109.50000 418.400000
1229 13563 7815 1 109.50000 418.400000
1229 13563 8008 1 109.50000 418.400000
1229 13563 8009 1 109.50000 418.400000
7815 13563 8008 1 109.50000 418.400000
7815 13563 8009 1 109.50000 418.400000
8008 13563 8009 1 109.50000 418.400000
3501 13564 5360 1 109.50000 418.400000
3501 13564 8010 1 109.50000 418.400000
3501 13564 8011 1 109.50000 418.400000
5360 13564 8010 1 109.50000 418.400000
5360 13564 8011 1 109.50000 418.400000
8010 13564 8011 1 109.50000 418.400000
4884 13565 5484 1 109.50000 418.400000
4884 13565 7514 1 109.50000 418.400000
4884 13565 8014 1 109.50000 418.400000
5484 13565 7514 1 109.50000 418.400000
5484 13565 8014 1 109.50000 418.400000
7514 13565 8014 1 109.50000 418.400000
8015 13566 8016 1 109.50000 418.400000
8015 13566 8017 1 109.50000 418.400000
8015 13566 8018 1 109.50000 418.400000
8016 13566 8017 1 109.50000 418.400000
8016 13566 8018 1 109.50000 418.400000
8017 13566 8018 1 109.50000 418.400000
8019 13567 8020 1 109.50000 418.400000
8019 13567 8021 1 109.50000 418.400000
8019 13567 8022 1 109.50000 418.400000
8020 13567 8021 1 109.50000 418.400000
8020 13567 8022 1 109.50000 418.400000
8021 13567 8022 1 109.50000 418.400000
2140 13568 3903 1 109.50000 418.400000
2140 13568 8023 1 109.50000 418.400000
2140 13568 8024 1 109.50000 418.400000
3903 13568 8023 1 109.50000 418.400000
3903 13568 8024 1 109.50000 418.400000
8023 13568 8024 1 109.50000 418.400000
2982 13569 8025 1 109.50000 418.400000
2982 13569 8026 1 109.50000 418.400000
2982 13569 8027 1 109.50000 418.400000
8025 13569 8026 1 109.50000 418.400000
8025 13569 8027 1 109.50000 418.400000
8026 13569 8027 1 109.50000 418.400000
3004 13570 5313 1 109.50000 418.400000
3004 13570 6683 1 109.50000 418.400000
3004 13570 8028 1 109.50000 418.400000
5313 13570 6683 1 109.50000 418.400000
5313 13570 8028 1 109.50000 418.400000
6683 13570 8028 1 109.50000 418.400000
8029 13571 8030 1 109.50000 418.400000
8029 13571 8031 1 109.50000 418.400000
8029 13571 8032 1 109.50000 418.400000
8030 13571 8031 1 109.50000 418.400000
8030 13571 8032 1 109.50000 418.400000
8031 13571 8032 1 109.50000 418.400000
6469 13572 8033 1 109.50000 418.400000
6469 13572 8034 1 109.50000 418.400000
6469 13572 8035 1 109.50000 418.400000
8033 13572 8034 1 109.50000 418.400000
8033 13572 8035 1 109.50000 418.400000
8034 13572 8035 1 109.50000 418.400000
4136 13573 8036 1 109.50000 418.400000
4136 13573 8037 1 109.50000 418.400000
4136 13573 8939 1 109.50000 418.400000
8036 13573 8037 1 109.50000 418.400000
8036 13573 8939 1 109.50000 418.400000
8037 13573 8939 1 109.50000 418.400000
4126 13574 6387 1 109.50000 418.400000
4126 13574 8038 1 109.50000 418.400000
4126 13574 8039 1 109.50000 418.400000
6387 13574 8038 1 109.50000 418.400000
6387 13574 8039 1 109.50000 418.400000
8038 13574 8039 1 109.50000 418.400000
5692 13575 7563 1 109.50000 418.400000
5692 13575 8040 1 109.50000 418.400000
5692 13575 8041 1 109.50000 418.400000
7563 13575 8040 1 109.50000 418.400000
7563 13575 8041 1 109.50000 418.400000
8040 13575 8041 1 109.50000 418.400000
2191 13576 2612 1 109.50000 418.400000
2191 13576 7422 1 109.50000 418.400000
2191 13576 8042 1 109.50000 418.400000
2612 13576 7422 1 109.50000 418.400000
2612 13576 8042 1 109.50000 418.400000
7422 13576 8042 1 109.50000 418.400000
2855 13577 4664 1 109.50000 418.400000
2855 13577 5930 1 109.50000 418.400000
2855 13577 8046 1 109.50000 418.400000
4664 13577 5930 1 109.50000 418.400000
4664 13577 8046 1 109.50000 418.400000
5930 13577 8046 1 109.50000 418.400000
5402 13578 6037 1 109.50000 418.400000
5402 13578 8047 1 109.50000 418.400000
5402 13578 8048 1 109.50000 418.400000
6037 13578 8047 1 109.50000 418.400000
6037 13578 8048 1 109.50000 418.400000
8047 13578 8048 1 109.50000 418.400000
926 13579 2449 1 109.50000 418.400000
926 13579 8049 1 109.50000 418.400000
926 13579 8050 1 109.50000 418.400000
2449 13579 8049 1 109.50000 418.400000
2449 13579 8050 1 109.50000 418.400000
8049 13579 8050 1 109.50000 418.400000
99 13580 7925 1 109.50000 418.400000
99 13580 8051 1 109.50000 418.400000
99 13580 8052 1 109.50000 418.400000
7925 13580 8051 1 109.50000 418.400000
7925 13580 8052 1 109.50000 418.400000
8051 13580 8052 1 109.50000 418.400000
32 13581 3401 1 109.50000 418.400000
32 13581 4064 1 109.50000 418.400000
32 13581 6276 1 109.50000 418.400000
3401 13581 4064 1 109.50000 418.400000
3401 13581 6276 1 109.50000 418.400000
4064 13581 6276 1 109.50000 418.400000
368 13582 3179 1 109.50000 418.400000
368 13582 8053 1 109.50000 418.400000
368 13582 8054 1 109.50000 418.400000
3179 13582 8053 1 109.50000 418.400000
3179 13582 8054 1 109.50000 418.400000
8053 13582 8054 1 109.50000 418.400000
6456 13583 8055 1 109.50000 418.400000
6456 13583 8056 1 109.50000 418.400000
6456 13583 8057 1 109.50000 418.400000
8055 13583 8056 1 109.50000 418.400000
8055 13583 8057 1 109.50000 418.400000
8056 13583 8057 1 109.50000 418.400000
4216 13584 8058 1 109.50000 418.400000
4216 13584 8059 1 109.50000 418.400000
4216 13584 11170 1 109.50000 418.400000
8058 13584 8059 1 109.50000 418.400000
8058 13584 11170 1 109.50000 418.400000
8059 13584 11170 1 109.50000 418.400000
2581 13585 7001 1 109.50000 418.400000
2581 13585 8060 1 109.50000 418.400000
2581 13585 8061 1 109.50000 418.400000
7001 13585 8060 1 109.50000 418.400000
7001 13585 8061 1 109.50000 418.400000
8060 13585 8061 1 109.50000 418.400000
4056 13586 5880 1 109.50000 418.400000
4056 13586 7188 1 109.50000 418.400000
4056 13586 8062 1 109.50000 418.400000
5880 13586 7188 1 109.50000 418.400000
5880 13586 8062 1 109.50000 418.400000
7188 13586 8062 1 109.50000 418.400000
4090 13587 4793 1 109.50000 418.400000
4090 13587 6139 1 109.50000 418.400000
4090 13587 8063 1 109.50000 418.400000
4793 13587 6139 1 109.50000 418.400000
4793 13587 8063 1 109.50000 418.400000
6139 13587 8063 1 109.50000 418.400000
3157 13588 8064 1 109.50000 418.400000
3157 13588 8065 1 109.50000 418.400000
3157 13588 8066 1 109.50000 418.400000
8064 13588 8065 1 109.50000 418.400000
8064 13588 8066 1 109.50000 418.400000
8065 13588 8066 1 109.50000 418.400000
2465 13589 5267 1 109.50000 418.400000
2465 13589 8068 1 109.50000 418.400000
2465 13589 8069 1 109.50000 418.400000
5267 13589 8068 1 109.50000 418.400000
5267 13589 8069 1 109.50000 418.400000
8068 13589 8069 1 109.50000 418.400000
58 13590 7841 1 109.50000 418.400000
58 13590 8070 1 109.50000 418.400000
58 13590 8071 1 109.50000 418.400000
7841 13590 8070 1 109.50000 418.400000
7841 13590 8071 1 109.50000 418.400000
8070 13590 8071 1 109.50000 418.400000
2183 13591 3483 1 109.50000 418.400000
2183 13591 3703 1 109.50000 418.400000
2183 13591 8072 1 109.50000 418.400000
3483 13591 3703 1 109.50000 418.400000
3483 13591 8072 1 109.50000 418.400000
3703 13591 8072 1 109.50000 418.400000
1136 13592 1524 1 109.50000 418.400000
1136 13592 4898 1 109.50000 418.400000
1136 13592 8073 1 109.50000 418.400000
1524 13592 4898 1 109.50000 418.400000
1524 13592 8073 1 109.50000 418.400000
4898 13592 8073 1 109.50000 418.400000
1600 13593 5149 1 109.50000 418.400000
1600 13593 7931 1 109.50000 418.400000
1600 13593 8074 1 109.50000 418.400000
5149 13593 7931 1 109.50000 418.400000
5149 13593 8074 1 109.50000 418.400000
7931 13593 8074 1 109.50000 418.400000
2815 13594 8075 1 109.50000 418.400000
2815 13594 8076 1 109.50000 418.400000
2815 13594 8077 1 109.50000 418.400000
8075 13594 8076 1 109.50000 418.400000
8075 13594 8077 1 109.50000 418.400000
8076 13594 8077 1 109.50000 418.400000
1078 13595 8078 1 109.50000 418.400000
1078 13595 8079 1 109.50000 418.400000
1078 13595 8080 1 109.50000 418.400000
8078 13595 8079 1 109.50000 418.400000
8078 13595 8080 1 109.50000 418.400000
8079 13595 8080 1 109.50000 418.400000
6702 13596 7254 1 109.50000 418.400000
6702 13596 8082 1 109.50000 418.400000
6702 13596 8083 1 109.50000 418.400000
7254 13596 8082 1 109.50000 418.400000
7254 13596 8083 1 109.50000 418.400000
8082 13596 8083 1 109.50000 418.400000
2091 13597 7885 1 109.50000 418.400000
2091 13597 8085 1 109.50000 418.400000
2091 13597 8086 1 109.50000 418.400000
7885 13597 8085 1 109.50000 418.400000
7885 13597 8086 1 109.50000 418.400000
8085 13597 8086 1 109.50000 418.400000
3064 13598 7452 1 109.50000 418.400000
3064 13598 8087 1 109.50000 418.400000
3064 13598 8088 1 109.50000 418.400000
7452 13598 8087 1 109.50000 418.400000
7452 13598 8088 1 109.50000 418.400000
8087 13598 8088 1 109.50000 418.400000
7597 13599 8094 1 109.50000 418.400000
7597 13599 8095 1 109.50000 418.400000
7597 13599 10370 1 109.50000 418.400000
8094 13599 8095 1 109.50000 418.400000
8094 13599 10370 1 109.50000 418.400000
8095 13599 10370 1 109.50000 418.400000
1783 13600 4250 1 109.50000 418.400000
1783 13600 8096 1 109.50000 418.400000
1783 13600 8097 1 109.50000 418.400000
4250 13600 8096 1 109.50000 418.400000
4250 13600 8097 1 109.50000 418.400000
8096 13600 8097 1 109.50000 418.400000
2235 13601 8098 1 109.50000 418.400000
2235 13601 8100 1 109.50000 418.400000
2235 13601 8101 1 109.50000 418.400000
8098 13601 8100 1 109.50000 418.400000
8098 13601 8101 1 109.50000 418.400000
8100 13601 8101 1 109.50000 418.400000
2665 13602 8102 1 109.50000 418.400000
2665 13602 8103 1 109.50000 418.400000
2665 13602 8104 1 109.50000 418.400000
8102 13602 8103 1 109.50000 418.400000
8102 13602 8104 1 109.50000 418.400000
8103 13602 8104 1 109.50000 418.400000
2303 13603 5330 1 109.50000 418.400000
2303 13603 7419 1 109.50000 418.400000
2303 13603 7549 1 109.50000 418.400000
5330 13603 7419 1 109.50000 418.400000
5330 13603 7549 1 109.50000 418.400000
7419 13603 7549 1 109.50000 418.400000
4599 13604 4841 1 109.50000 418.400000
4599 13604 6446 1 109.50000 418.400000
4599 13604 7533 1 109.50000 418.400000
4841 13604 6446 1 109.50000 418.400000
4841 13604 7533 1 109.50000 418.400000
6446 13604 7533 1 109.50000 418.400000
1961 13605 3531 1 109.50000 418.400000
1961 13605 5847 1 109.50000 418.400000
1961 13605 8107 1 109.50000 418.400000
3531 13605 5847 1 109.50000 418.400000
3531 13605 8107 1 109.50000 418.400000
5847 13605 8107 1 109.50000 418.400000
2072 13606 8108 1 109.50000 418.400000
2072 13606 8109 1 109.50000 418.400000
2072 13606 8110 1 109.50000 418.400000
8108 13606 8109 1 109.50000 418.400000
8108 13606 8110 1 109.50000 418.400000
8109 13606 8110 1 109.50000 418.400000
4760 13607 6591 1 109.50000 418.400000
4760 13607 8111 1 109.50000 418.400000
4760 13607 8112 1 109.50000 418.400000
6591 13607 8111 1 109.50000 418.400000
6591 13607 8112 1 109.50000 418.400000
8111 13607 8112 1 109.50000 418.400000
1692 13608 3240 1 109.50000 418.400000
1692 13608 8113 1 109.50000 418.400000
1692 13608 8114 1 109.50000 418.400000
3240 13608 8113 1 109.50000 418.400000
3240 13608 8114 1 109.50000 418.400000
8113 13608 8114 1 109.50000 418.400000
1618 13609 5664 1 109.50000 418.400000
1618 13609 6890 1 109.50000 418.400000
1618 13609 8116 1 109.50000 418.400000
5664 13609 6890 1 109.50000 418.400000
5664 13609 8116 1 109.50000 418.400000
6890 13609 8116 1 109.50000 418.400000
4559 13610 6166 1 109.50000 418.400000
4559 13610 8117 1 109.50000 418.400000
4559 13610 8118 1 109.50000 418.400000
6166 13610 8117 1 109.50000 418.400000
6166 13610 8118 1 109.50000 418.400000
8117 13610 8118 1 109.50000 418.400000
816 13611 8119 1 109.50000 418.400000
816 13611 8120 1 109.50000 418.400000
816 13611 8121 1 109.50000 418.400000
8119 13611 8120 1 109.50000 418.400000
8119 13611 8121 1 109.50000 418.400000
8120 13611 8121 1 109.50000 418.400000
3008 13612 3010 1 109.50000 418.400000
3008 13612 4640 1 109.50000 418.400000
3008 13612 8122 1 109.50000 418.400000
3010 13612 4640 1 109.50000 418.400000
3010 13612 8122 1 109.50000 418.400000
4640 13612 8122 1 109.50000 418.400000
5657 13613 7252 1 109.50000 418.400000
5657 13613 8123 1 109.50000 418.400000
5657 13613 8124 1 109.50000 418.400000
7252 13613 8123 1 109.50000 418.400000
7252 13613 8124 1 109.50000 418.400000
8123 13613 8124 1 109.50000 418.400000
475 13614 3947 1 109.50000 418.400000
475 13614 8125 1 109.50000 418.400000
475 13614 8126 1 109.50000 418.400000
3947 13614 8125 1 109.50000 418.400000
3947 13614 8126 1 109.50000 418.400000
8125 13614 8126 1 109.50000 418.400000
7389 13615 8127 1 109.50000 418.400000
7389 13615 8128 1 109.50000 418.400000
7389 13615 8129 1 109.50000 418.400000
8127 13615 8128 1 109.50000 418.400000
8127 13615 8129 1 109.50000 418.400000
8128 13615 8129 1 109.50000 418.400000
6808 13616 8114 1 109.50000 418.400000
6808 13616 8130 1 109.50000 418.400000
6808 13616 8131 1 109.50000 418.400000
8114 13616 8130 1 109.50000 418.400000
8114 13616 8131 1 109.50000 418.400000
8130 13616 8131 1 109.50000 418.400000
1246 13617 3235 1 109.50000 418.400000
1246 13617 8132 1 109.50000 418.400000
1246 13617 8133 1 109.50000 418.400000
3235 13617 8132 1 109.50000 418.400000
3235 13617 8133 1 109.50000 418.400000
8132 13617 8133 1 109.50000 418.400000
2484 13618 7859 1 109.50000 418.400000
2484 13618 8134 1 109.50000 418.400000
2484 13618 8135 1 109.50000 418.400000
7859 13618 8134 1 109.50000 418.400000
7859 13618 8135 1 109.50000 418.400000
8134 13618 8135 1 109.50000 418.400000
5950 13619 8136 1 109.50000 418.400000
5950 13619 8137 1 109.50000 418.400000
5950 13619 8138 1 109.50000 418.400000
8136 13619 8137 1 109.50000 418.400000
8136 13619 8138 1 109.50000 418.400000
8137 13619 8138 1 109.50000 418.400000
6599 13620 8139 1 109.50000 418.400000
6599 13620 8140 1 109.50000 418.400000
6599 13620 8141 1 109.50000 418.400000
8139 13620 8140 1 109.50000 418.400000
8139 13620 8141 1 109.50000 418.400000
8140 13620 8141 1 109.50000 418.400000
6922 13621 8143 1 109.50000 418.400000
6922 13621 8144 1 109.50000 418.400000
6922 13621 10063 1 109.50000 418.400000
8143 13621 8144 1 109.50000 418.400000
8143 13621 10063 1 109.50000 418.400000
8144 13621 10063 1 109.50000 418.400000
765 13622 5877 1 109.50000 418.400000
765 13622 6358 1 109.50000 418.400000
765 13622 8145 1 109.50000 418.400000
5877 13622 6358 1 109.50000 418.400000
5877 13622 8145 1 109.50000 418.400000
6358 13622 8145 1 109.50000 418.400000
2957 13623 3150 1 109.50000 418.400000
2957 13623 8146 1 109.50000 418.400000
2957 13623 8147 1 109.50000 418.400000
3150 13623 8146 1 109.50000 418.400000
3150 13623 8147 1 109.50000 418.400000
8146 13623 8147 1 109.50000 418.400000
467 13624 3028 1 109.50000 418.400000
467 13624 8149 1 109.50000 418.400000
467 13624 10793 1 109.50000 418.400000
3028 13624 8149 1 109.50000 418.400000
3028 13624 10793 1 109.50000 418.400000
8149 13624 10793 1 109.50000 418.400000
2848 13625 7213 1 109.50000 418.400000
2848 13625 8151 1 109.50000 418.400000
2848 13625 8152 1 109.50000 418.400000
7213 13625 8151 1 109.50000 418.400000
7213 13625 8152 1 109.50000 418.400000
8151 13625 8152 1 109.50000 418.400000
2441 13626 8154 1 109.50000 418.400000
2441 13626 8155 1 109.50000 418.400000
2441 13626 8157 1 109.50000 418.400000
8154 13626 8155 1 109.50000 418.400000
8154 13626 8157 1 109.50000 418.400000
8155 13626 8157 1 109.50000 418.400000
2691 13627 7559 1 109.50000 418.400000
2691 13627 8158 1 109.50000 418.400000
2691 13627 8159 1 109.50000 418.400000
7559 13627 8158 1 109.50000 418.400000
7559 13627 8159 1 109.50000 418.400000
8158 13627 8159 1 109.50000 418.400000
1463 13628 3263 1 109.50000 418.400000
1463 13628 8160 1 109.50000 418.400000
1463 13628 8162 1 109.50000 418.400000
3263 13628 8160 1 109.50000 418.400000
3263 13628 8162 1 109.50000 418.400000
8160 13628 8162 1 109.50000 418.400000
7321 13629 8052 1 109.50000 418.400000
7321 13629 8163 1 109.50000 418.400000
7321 13629 8164 1 109.50000 418.400000
8052 13629 8163 1 109.50000 418.400000
8052 13629 8164 1 109.50000 418.400000
8163 13629 8164 1 109.50000 418.400000
679 13630 1133 1 109.50000 418.400000
679 13630 1440 1 109.50000 418.400000
679 13630 8165 1 109.50000 418.400000
1133 13630 1440 1 109.50000 418.400000
1133 13630 8165 1 109.50000 418.400000
1440 13630 8165 1 109.50000 418.400000
3025 13631 5292 1 109.50000 418.400000
3025 13631 6318 1 109.50000 418.400000
3025 13631 8167 1 109.50000 418.400000
5292 13631 6318 1 109.50000 418.400000
5292 13631 8167 1 109.50000 418.400000
6318 13631 8167 1 109.50000 418.400000
1172 13632 5801 1 109.50000 418.400000
1172 13632 7307 1 109.50000 418.400000
1172 13632 8168 1 109.50000 418.400000
5801 13632 7307 1 109.50000 418.400000
5801 13632 8168 1 109.50000 418.400000
7307 13632 8168 1 109.50000 418.400000
327 13633 8169 1 109.50000 418.400000
327 13633 8170 1 109.50000 418.400000
327 13633 8171 1 109.50000 418.400000
8169 13633 8170 1 109.50000 418.400000
8169 13633 8171 1 109.50000 418.400000
8170 13633 8171 1 109.50000 418.400000
8175 13634 8176 1 109.50000 418.400000
8175 13634 8177 1 109.50000 418.400000
8175 13634 8178 1 109.50000 418.400000
8176 13634 8177 1 109.50000 418.400000
8176 13634 8178 1 109.50000 418.400000
8177 13634 8178 1 109.50000 418.400000
8179 13635 8180 1 109.50000 418.400000
8179 13635 8181 1 109.50000 418.400000
8179 13635 8182 1 109.50000 418.400000
8180 13635 8181 1 109.50000 418.400000
8180 13635 8182 1 109.50000 418.400000
8181 13635 8182 1 109.50000 418.400000
4743 13636 6159 1 109.50000 418.400000
4743 13636 8183 1 109.50000 418.400000
4743 13636 8184 1 109.50000 418.400000
6159 13636 8183 1 109.50000 418.400000
6159 13636 8184 1 109.50000 418.400000
8183 13636 8184 1 109.50000 418.400000
341 13637 3143 1 109.50000 418.400000
341 13637 3934 1 109.50000 418.400000
341 13637 8185 1 109.50000 418.400000
3143 13637 3934 1 109.50000 418.400000
3143 13637 8185 1 109.50000 418.400000
3934 13637 8185 1 109.50000 418.400000
7648 13638 8186 1 109.50000 418.400000
7648 13638 8187 1 109.50000 418.400000
7648 13638 8188 1 109.50000 418.400000
8186 13638 8187 1 109.50000 418.400000
8186 13638 8188 1 109.50000 418.400000
8187 13638 8188 1 109.50000 418.400000
2033 13639 8189 1 109.50000 418.400000
2033 13639 8190 1 109.50000 418.400000
2033 13639 8191 1 109.50000 418.400000
8189 13639 8190 1 109.50000 418.400000
8189 13639 8191 1 109.50000 418.400000
8190 13639 8191 1 109.50000 418.400000
2412 13640 8192 1 109.50000 418.400000
2412 13640 8193 1 109.50000 418.400000
2412 13640 8194 1 109.50000 418.400000
8192 13640 8193 1 109.50000 418.400000
8192 13640 8194 1 109.50000 418.400000
8193 13640 8194 1 109.50000 418.400000
7379 13641 8136 1 109.50000 418.400000
7379 13641 8195 1 109.50000 418.400000
7379 13641 8196 1 109.50000 418.400000
8136 13641 8195 1 109.50000 418.400000
8136 13641 8196 1 109.50000 418.400000
8195 13641 8196 1 109.50000 418.400000
5719 13642 6887 1 109.50000 418.400000
5719 13642 7028 1 109.50000 418.400000
5719 13642 8197 1 109.50000 418.400000
6887 13642 7028 1 109.50000 418.400000
6887 13642 8197 1 109.50000 418.400000
7028 13642 8197 1 109.50000 418.400000
6720 13643 8199 1 109.50000 418.400000
6720 13643 8200 1 109.50000 418.400000
6720 13643 8201 1 109.50000 418.400000
8199 13643 8200 1 109.50000 418.400000
8199 13643 8201 1 109.50000 418.400000
8200 13643 8201 1 109.50000 418.400000
2004 13644 5006 1 109.50000 418.400000
2004 13644 7500 1 109.50000 418.400000
2004 13644 8202 1 109.50000 418.400000
5006 13644 7500 1 109.50000 418.400000
5006 13644 8202 1 109.50000 418.400000
7500 13644 8202 1 109.50000 418.400000
4838 13645 7191 1 109.50000 418.400000
4838 13645 8203 1 109.50000 418.400000
4838 13645 8204 1 109.50000 418.400000
7191 13645 8203 1 109.50000 418.400000
7191 13645 8204 1 109.50000 418.400000
8203 13645 8204 1 109.50000 418.400000
3767 13646 8205 1 109.50000 418.400000
3767 13646 8206 1 109.50000 418.400000
3767 13646 8207 1 109.50000 418.400000
8205 13646 8206 1 109.50000 418.400000
8205 13646 8207 1 109.50000 418.400000
8206 13646 8207 1 109.50000 418.400000
4092 13647 6995 1 109.50000 418.400000
4092 13647 8208 1 109.50000 418.400000
4092 13647 8209 1 109.50000 418.400000
6995 13647 8208 1 109.50000 418.400000
6995 13647 8209 1 109.50000 418.400000
8208 13647 8209 1 109.50000 418.400000
2166 13648 4676 1 109.50000 418.400000
2166 13648 6497 1 109.50000 418.400000
2166 13648 8210 1 109.50000 418.400000
4676 13648 6497 1 109.50000 418.400000
4676 13648 8210 1 109.50000 418.400000
6497 13648 8210 1 109.50000 418.400000
1272 13649 3919 1 109.50000 418.400000
1272 13649 3920 1 109.50000 418.400000
1272 13649 5706 1 109.50000 418.400000
3919 13649 3920 1 109.50000 418.400000
3919 13649 5706 1 109.50000 418.400000
3920 13649 5706 1 109.50000 418.400000
4810 13650 4811 1 109.50000 418.400000
4810 13650 5151 1 109.50000 418.400000
4810 13650 8213 1 109.50000 418.400000
4811 13650 5151 1 109.50000 418.400000
4811 13650 8213 1 109.50000 418.400000
5151 13650 8213 1 109.50000 418.400000
6657 13651 7619 1 109.50000 418.400000
6657 13651 8214 1 109.50000 418.400000
6657 13651 8215 1 109.50000 418.400000
7619 13651 8214 1 109.50000 418.400000
7619 13651 8215 1 109.50000 418.400000
8214 13651 8215 1 109.50000 418.400000
4406 13652 6240 1 109.50000 418.400000
4406 13652 6882 1 109.50000 418.400000
4406 13652 8217 1 109.50000 418.400000
6240 13652 6882 1 109.50000 418.400000
6240 13652 8217 1 109.50000 418.400000
6882 13652 8217 1 109.50000 418.400000
2944 13653 5406 1 109.50000 418.400000
2944 13653 8218 1 109.50000 418.400000
2944 13653 8219 1 109.50000 418.400000
5406 13653 8218 1 109.50000 418.400000
5406 13653 8219 1 109.50000 418.400000
8218 13653 8219 1 109.50000 418.400000
282 13654 1533 1 109.50000 418.400000
282 13654 3821 1 109.50000 418.400000
282 13654 8220 1 109.50000 418.400000
1533 13654 3821 1 109.50000 418.400000
1533 13654 8220 1 109.50000 418.400000
3821 13654 8220 1 109.50000 418.400000
5717 13655 7910 1 109.50000 418.400000
5717 13655 8221 1 109.50000 418.400000
5717 13655 11178 1 109.50000 418.400000
7910 13655 8221 1 109.50000 418.400000
7910 13655 11178 1 109.50000 418.400000
8221 13655 11178 1 109.50000 418.400000
6093 13656 8223 1 109.50000 418.400000
6093 13656 8224 1 109.50000 418.400000
6093 13656 8225 1 109.50000 418.400000
8223 13656 8224 1 109.50000 418.400000
8223 13656 8225 1 109.50000 418.400000
8224 13656 8225 1 109.50000 418.400000
335 13657 8226 1 109.50000 418.400000
335 13657 8227 1 109.50000 418.400000
335 13657 8228 1 109.50000 418.400000
8226 13657 8227 1 109.50000 418.400000
8226 13657 8228 1 109.50000 418.400000
8227 13657 8228 1 109.50000 418.400000
2329 13658 4034 1 109.50000 418.400000
2329 13658 6481 1 109.50000 418.400000
2329 13658 7317 1 109.50000 418.400000
4034 13658 6481 1 109.50000 418.400000
4034 13658 7317 1 109.50000 418.400000
6481 13658 7317 1 109.50000 418.400000
8229 13659 8230 1 109.50000 418.400000
8229 13659 8231 1 109.50000 418.400000
8229 13659 8232 1 109.50000 418.400000
8230 13659 8231 1 109.50000 418.400000
8230 13659 8232 1 109.50000 418.400000
8231 13659 8232 1 109.50000 418.400000
558 13660 1991 1 109.50000 418.400000
558 13660 8233 1 109.50000 418.400000
558 13660 8234 1 109.50000 418.400000
1991 13660 8233 1 109.50000 418.400000
1991 13660 8234 1 109.50000 418.400000
8233 13660 8234 1 109.50000 418.400000
51 13661 2888 1 109.50000 418.400000
51 13661 8235 1 109.50000 418.400000
51 13661 8236 1 109.50000 418.400000
2888 13661 8235 1 109.50000 418.400000
2888 13661 8236 1 109.50000 418.400000
8235 13661 8236 1 109.50000 418.400000
6157 13662 6334 1 109.50000 418.400000
6157 13662 8238 1 109.50000 418.400000
6157 13662 8239 1 109.50000 418.400000
6334 13662 8238 1 109.50000 418.400000
6334 13662 8239 1 109.50000 418.400000
8238 13662 8239 1 109.50000 418.400000
5196 13663 8241 1 109.50000 418.400000
5196 13663 8242 1 109.50000 418.400000
5196 13663 8609 1 109.50000 418.400000
8241 13663 8242 1 109.50000 418.400000
8241 13663 8609 1 109.50000 418.400000
8242 13663 8609 1 109.50000 418.400000
5034 13664 8243 1 109.50000 418.400000
5034 13664 8244 1 109.50000 418.400000
5034 13664 8245 1 109.50000 418.400000
8243 13664 8244 1 109.50000 418.400000
8243 13664 8245 1 109.50000 418.400000
8244 13664 8245 1 109.50000 418.400000
5854 13665 7800 1 109.50000 418.400000
5854 13665 8247 1 109.50000 418.400000
5854 13665 11187 1 109.50000 418.400000
7800 13665 8247 1 109.50000 418.400000
7800 13665 11187 1 109.50000 418.400000
8247 13665 11187 1 109.50000 418.400000
3840 13666 7122 1 109.50000 418.400000
3840 13666 8199 1 109.50000 418.400000
3840 13666 8248 1 109.50000 418.400000
7122 13666 8199 1 109.50000 418.400000
7122 13666 8248 1 109.50000 418.400000
8199 13666 8248 1 109.50000 418.400000
8249 13667 8250 1 109.50000 418.400000
8249 13667 8251 1 109.50000 418.400000
8249 13667 8252 1 109.50000 418.400000
8250 13667 8251 1 109.50000 418.400000
8250 13667 8252 1 109.50000 418.400000
8251 13667 8252 1 109.50000 418.400000
5855 13668 8253 1 109.50000 418.400000
5855 13668 8254 1 109.50000 418.400000
5855 13668 8255 1 109.50000 418.400000
8253 13668 8254 1 109.50000 418.400000
8253 13668 8255 1 109.50000 418.400000
8254 13668 8255 1 109.50000 418.400000
4220 13669 8256 1 109.50000 418.400000
4220 13669 8257 1 109.50000 418.400000
4220 13669 8258 1 109.50000 418.400000
8256 13669 8257 1 109.50000 418.400000
8256 13669 8258 1 109.50000 418.400000
8257 13669 8258 1 109.50000 418.400000
3862 13670 6438 1 109.50000 418.400000
3862 13670 8260 1 109.50000 418.400000
3862 13670 8261 1 109.50000 418.400000
6438 13670 8260 1 109.50000 418.400000
6438 13670 8261 1 109.50000 418.400000
8260 13670 8261 1 109.50000 418.400000
1167 13671 3724 1 109.50000 418.400000
1167 13671 8263 1 109.50000 418.400000
1167 13671 8264 1 109.50000 418.400000
3724 13671 8263 1 109.50000 418.400000
3724 13671 8264 1 109.50000 418.400000
8263 13671 8264 1 109.50000 418.400000
5459 13672 8266 1 109.50000 418.400000
5459 13672 8267 1 109.50000 418.400000
5459 13672 8268 1 109.50000 418.400000
8266 13672 8267 1 109.50000 418.400000
8266 13672 8268 1 109.50000 418.400000
8267 13672 8268 1 109.50000 418.400000
102 13673 8269 1 109.50000 418.400000
102 13673 8270 1 109.50000 418.400000
102 13673 8271 1 109.50000 418.400000
8269 13673 8270 1 109.50000 418.400000
8269 13673 8271 1 109.50000 418.400000
8270 13673 8271 1 109.50000 418.400000
2819 13674 4755 1 109.50000 418.400000
2819 13674 8042 1 109.50000 418.400000
2819 13674 8272 1 109.50000 418.400000
4755 13674 8042 1 109.50000 418.400000
4755 13674 8272 1 109.50000 418.400000
8042 13674 8272 1 109.50000 418.400000
438 13675 1211 1 109.50000 418.400000
438 13675 5074 1 109.50000 418.400000
438 13675 8273 1 109.50000 418.400000
1211 13675 5074 1 109.50000 418.400000
1211 13675 8273 1 109.50000 418.400000
5074 13675 8273 1 109.50000 418.400000
1135 13676 2679 1 109.50000 418.400000
1135 13676 7370 1 109.50000 418.400000
1135 13676 8274 1 109.50000 418.400000
2679 13676 7370 1 109.50000 418.400000
2679 13676 8274 1 109.50000 418.400000
7370 13676 8274 1 109.50000 418.400000
2256 13677 5191 1 109.50000 418.400000
2256 13677 5726 1 109.50000 418.400000
2256 13677 8275 1 109.50000 418.400000
5191 13677 5726 1 109.50000 418.400000
5191 13677 8275 1 109.50000 418.400000
5726 13677 8275 1 109.50000 418.400000
4822 13678 6545 1 109.50000 418.400000
4822 13678 6546 1 109.50000 418.400000
4822 13678 8278 1 109.50000 418.400000
6545 13678 6546 1 109.50000 418.400000
6545 13678 8278 1 109.50000 418.400000
6546 13678 8278 1 109.50000 418.400000
694 13679 6361 1 109.50000 418.400000
694 13679 6363 1 109.50000 418.400000
694 13679 8280 1 109.50000 418.400000
6361 13679 6363 1 109.50000 418.400000
6361 13679 8280 1 109.50000 418.400000
6363 13679 8280 1 109.50000 418.400000
7722 13680 8281 1 109.50000 418.400000
7722 13680 8282 1 109.50000 418.400000
7722 13680 8998 1 109.50000 418.400000
8281 13680 8282 1 109.50000 418.400000
8281 13680 8998 1 109.50000 418.400000
8282 13680 8998 1 109.50000 418.400000
8284 13681 8285 1 109.50000 418.400000
8284 13681 8286 1 109.50000 418.400000
8284 13681 8287 1 109.50000 418.400000
8285 13681 8286 1 109.50000 418.400000
8285 13681 8287 1 109.50000 418.400000
8286 13681 8287 1 109.50000 418.400000
8290 13682 8291 1 109.50000 418.400000
8290 13682 9568 1 109.50000 418.400000
8290 13682 10944 1 109.50000 418.400000
8291 13682 9568 1 109.50000 418.400000
8291 13682 10944 1 109.50000 418.400000
9568 13682 10944 1 109.50000 418.400000
198 13683 6468 1 109.50000 418.400000
198 13683 8292 1 109.50000 418.400000
198 13683 8293 1 109.50000 418.400000
6468 13683 8292 1 109.50000 418.400000
6468 13683 8293 1 109.50000 418.400000
8292 13683 8293 1 109.50000 418.400000
6449 13684 6742 1 109.50000 418.400000
6449 13684 8295 1 109.50000 418.400000
6449 13684 8296 1 109.50000 418.400000
6742 13684 8295 1 109.50000 418.400000
6742 13684 8296 1 109.50000 418.400000
8295 13684 8296 1 109.50000 418.400000
2121 13685 3819 1 109.50000 418.400000
2121 13685 4294 1 109.50000 418.400000
2121 13685 8297 1 109.50000 418.400000
3819 13685 4294 1 109.50000 418.400000
3819 13685 8297 1 109.50000 418.400000
4294 13685 8297 1 109.50000 418.400000
1831 13686 8299 1 109.50000 418.400000
1831 13686 8300 1 109.50000 418.400000
1831 13686 8301 1 109.50000 418.400000
8299 13686 8300 1 109.50000 418.400000
8299 13686 8301 1 109.50000 418.400000
8300 13686 8301 1 109.50000 418.400000
4998 13687 8302 1 109.50000 418.400000
4998 13687 8303 1 109.50000 418.400000
4998 13687 8304 1 109.50000 418.400000
8302 13687 8303 1 109.50000 418.400000
8302 13687 8304 1 109.50000 418.400000
8303 13687 8304 1 109.50000 418.400000
3827 13688 4543 1 109.50000 418.400000
3827 13688 8305 1 109.50000 418.400000
3827 13688 8306 1 109.50000 418.400000
4543 13688 8305 1 109.50000 418.400000
4543 13688 8306 1 109.50000 418.400000
8305 13688 8306 1 109.50000 418.400000
2422 13689 4700 1 109.50000 418.400000
2422 13689 8307 1 109.50000 418.400000
2422 13689 8308 1 109.50000 418.400000
4700 13689 8307 1 109.50000 418.400000
4700 13689 8308 1 109.50000 418.400000
8307 13689 8308 1 109.50000 418.400000
1626 13690 8309 1 109.50000 418.400000
1626 13690 8310 1 109.50000 418.400000
1626 13690 8311 1 109.50000 418.400000
8309 13690 8310 1 109.50000 418.400000
8309 13690 8311 1 109.50000 418.400000
8310 13690 8311 1 109.50000 418.400000
5794 13691 5797 1 109.50000 418.400000
5794 13691 8312 1 109.50000 418.400000
5794 13691 8313 1 109.50000 418.400000
5797 13691 8312 1 109.50000 418.400000
5797 13691 8313 1 109.50000 418.400000
8312 13691 8313 1 109.50000 418.400000
8316 13692 8317 1 109.50000 418.400000
8316 13692 8318 1 109.50000 418.400000
8316 13692 8319 1 109.50000 418.400000
8317 13692 8318 1 109.50000 418.400000
8317 13692 8319 1 109.50000 418.400000
8318 13692 8319 1 109.50000 418.400000
922 13693 1193 1 109.50000 418.400000
922 13693 7809 1 109.50000 418.400000
922 13693 8320 1 109.50000 418.400000
1193 13693 7809 1 109.50000 418.400000
1193 13693 8320 1 109.50000 418.400000
7809 13693 8320 1 109.50000 418.400000
6217 13694 8029 1 109.50000 418.400000
6217 13694 8321 1 109.50000 418.400000
6217 13694 8322 1 109.50000 418.400000
8029 13694 8321 1 109.50000 418.400000
8029 13694 8322 1 109.50000 418.400000
8321 13694 8322 1 109.50000 418.400000
422 13695 5953 1 109.50000 418.400000
422 13695 8323 1 109.50000 418.400000
422 13695 8324 1 109.50000 418.400000
5953 13695 8323 1 109.50000 418.400000
5953 13695 8324 1 109.50000 418.400000
8323 13695 8324 1 109.50000 418.400000
3297 13696 8186 1 109.50000 418.400000
3297 13696 8325 1 109.50000 418.400000
3297 13696 8326 1 109.50000 418.400000
8186 13696 8325 1 109.50000 418.400000
8186 13696 8326 1 109.50000 418.400000
8325 13696 8326 1 109.50000 418.400000
8327 13697 8328 1 109.50000 418.400000
8327 13697 8329 1 109.50000 418.400000
8327 13697 8330 1 109.50000 418.400000
8328 13697 8329 1 109.50000 418.400000
8328 13697 8330 1 109.50000 418.400000
8329 13697 8330 1 109.50000 418.400000
3836 13698 8333 1 109.50000 418.400000
3836 13698 8334 1 109.50000 418.400000
3836 13698 8335 1 109.50000 418.400000
8333 13698 8334 1 109.50000 418.400000
8333 13698 8335 1 109.50000 418.400000
8334 13698 8335 1 109.50000 418.400000
8336 13699 8337 1 109.50000 418.400000
8336 13699 8338 1 109.50000 418.400000
8336 13699 8339 1 109.50000 418.400000
8337 13699 8338 1 109.50000 418.400000
8337 13699 8339 1 109.50000 418.400000
8338 13699 8339 1 109.50000 418.400000
2788 13700 3197 1 109.50000 418.400000
2788 13700 8340 1 109.50000 418.400000
2788 13700 8341 1 109.50000 418.400000
3197 13700 8340 1 109.50000 418.400000
3197 13700 8341 1 109.50000 418.400000
8340 13700 8341 1 109.50000 418.400000
5653 13701 5654 1 109.50000 418.400000
5653 13701 7451 1 109.50000 418.400000
5653 13701 8342 1 109.50000 418.400000
5654 13701 7451 1 109.50000 418.400000
5654 13701 8342 1 109.50000 418.400000
7451 13701 8342 1 109.50000 418.400000
2831 13702 8343 1 109.50000 418.400000
2831 13702 8344 1 109.50000 418.400000
2831 13702 8345 1 109.50000 418.400000
8343 13702 8344 1 109.50000 418.400000
8343 13702 8345 1 109.50000 418.400000
8344 13702 8345 1 109.50000 418.400000
6294 13703 6588 1 109.50000 418.400000
6294 13703 8346 1 109.50000 418.400000
6294 13703 8347 1 109.50000 418.400000
6588 13703 8346 1 109.50000 418.400000
6588 13703 8347 1 109.50000 418.400000
8346 13703 8347 1 109.50000 418.400000
539 13704 8348 1 109.50000 418.400000
539 13704 8349 1 109.50000 418.400000
539 13704 8350 1 109.50000 418.400000
8348 13704 8349 1 109.50000 418.400000
8348 13704 8350 1 109.50000 418.400000
8349 13704 8350 1 109.50000 418.400000
3427 13705 5046 1 109.50000 418.400000
3427 13705 6930 1 109.50000 418.400000
3427 13705 8104 1 109.50000 418.400000
5046 13705 6930 1 109.50000 418.400000
5046 13705 8104 1 109.50000 418.400000
6930 13705 8104 1 109.50000 418.400000
5827 13706 8351 1 109.50000 418.400000
5827 13706 8352 1 109.50000 418.400000
5827 13706 8353 1 109.50000 418.400000
8351 13706 8352 1 109.50000 418.400000
8351 13706 8353 1 109.50000 418.400000
8352 13706 8353 1 109.50000 418.400000
6490 13707 8355 1 109.50000 418.400000
6490 13707 8356 1 109.50000 418.400000
6490 13707 10119 1 109.50000 418.400000
8355 13707 8356 1 109.50000 418.400000
8355 13707 10119 1 109.50000 418.400000
8356 13707 10119 1 109.50000 418.400000
633 13708 6275 1 109.50000 418.400000
633 13708 8357 1 109.50000 418.400000
633 13708 8358 1 109.50000 418.400000
6275 13708 8357 1 109.50000 418.400000
6275 13708 8358 1 109.50000 418.400000
8357 13708 8358 1 109.50000 418.400000
6079 13709 8359 1 109.50000 418.400000
6079 13709 8360 1 109.50000 418.400000
6079 13709 8361 1 109.50000 418.400000
8359 13709 8360 1 109.50000 418.400000
8359 13709 8361 1 109.50000 418.400000
8360 13709 8361 1 109.50000 418.400000
6532 13710 7465 1 109.50000 418.400000
6532 13710 7948 1 109.50000 418.400000
6532 13710 8362 1 109.50000 418.400000
7465 13710 7948 1 109.50000 418.400000
7465 13710 8362 1 109.50000 418.400000
7948 13710 8362 1 109.50000 418.400000
5968 13711 8363 1 109.50000 418.400000
5968 13711 8364 1 109.50000 418.400000
5968 13711 8365 1 109.50000 418.400000
8363 13711 8364 1 109.50000 418.400000
8363 13711 8365 1 109.50000 418.400000
8364 13711 8365 1 109.50000 418.400000
3606 13712 3979 1 109.50000 418.400000
3606 13712 8366 1 109.50000 418.400000
3606 13712 8367 1 109.50000 418.400000
3979 13712 8366 1 109.50000 418.400000
3979 13712 8367 1 109.50000 418.400000
8366 13712 8367 1 109.50000 418.400000
4772 13713 6039 1 109.50000 418.400000
4772 13713 7687 1 109.50000 418.400000
4772 13713 8372 1 109.50000 418.400000
6039 13713 7687 1 109.50000 418.400000
6039 13713 8372 1 109.50000 418.400000
7687 13713 8372 1 109.50000 418.400000
1985 13714 5388 1 109.50000 418.400000
1985 13714 8374 1 109.50000 418.400000
1985 13714 8375 1 109.50000 418.400000
5388 13714 8374 1 109.50000 418.400000
5388 13714 8375 1 109.50000 418.400000
8374 13714 8375 1 109.50000 418.400000
359 13715 1686 1 109.50000 418.400000
359 13715 1687 1 109.50000 418.400000
359 13715 8377 1 109.50000 418.400000
1686 13715 1687 1 109.50000 418.400000
1686 13715 8377 1 109.50000 418.400000
1687 13715 8377 1 109.50000 418.400000
2521 13716 5750 1 109.50000 418.400000
2521 13716 5770 1 109.50000 418.400000
2521 13716 8378 1 109.50000 418.400000
5750 13716 5770 1 109.50000 418.400000
5750 13716 8378 1 109.50000 418.400000
5770 13716 8378 1 109.50000 418.400000
2797 13717 4346 1 109.50000 418.400000
2797 13717 8379 1 109.50000 418.400000
2797 13717 8380 1 109.50000 418.400000
4346 13717 8379 1 109.50000 418.400000
4346 13717 8380 1 109.50000 418.400000
8379 13717 8380 1 109.50000 418.400000
767 13718 1936 1 109.50000 418.400000
767 13718 8382 1 109.50000 418.400000
767 13718 8383 1 109.50000 418.400000
1936 13718 8382 1 109.50000 418.400000
1936 13718 8383 1 109.50000 418.400000
8382 13718 8383 1 109.50000 418.400000
256 13719 1827 1 109.50000 418.400000
256 13719 6834 1 109.50000 418.400000
256 13719 8384 1 109.50000 418.400000
1827 13719 6834 1 109.50000 418.400000
1827 13719 8384 1 109.50000 418.400000
6834 13719 8384 1 109.50000 418.400000
480 13720 5688 1 109.50000 418.400000
480 13720 8010 1 109.50000 418.400000
480 13720 8385 1 109.50000 418.400000
5688 13720 8010 1 109.50000 418.400000
5688 13720 8385 1 109.50000 418.400000
8010 13720 8385 1 109.50000 418.400000
3722 13721 8386 1 109.50000 418.400000
3722 13721 8387 1 109.50000 418.400000
3722 13721 8388 1 109.50000 418.400000
8386 13721 8387 1 109.50000 418.400000
8386 13721 8388 1 109.50000 418.400000
8387 13721 8388 1 109.50000 418.400000
1752 13722 5552 1 109.50000 418.400000
1752 13722 7255 1 109.50000 418.400000
1752 13722 8389 1 109.50000 418.400000
5552 13722 7255 1 109.50000 418.400000
5552 13722 8389 1 109.50000 418.400000
7255 13722 8389 1 109.50000 418.400000
6234 13723 8390 1 109.50000 418.400000
6234 13723 8391 1 109.50000 418.400000
6234 13723 10272 1 109.50000 418.400000
8390 13723 8391 1 109.50000 418.400000
8390 13723 10272 1 109.50000 418.400000
8391 13723 10272 1 109.50000 418.400000
3656 13724 5310 1 109.50000 418.400000
3656 13724 8392 1 109.50000 418.400000
3656 13724 8393 1 109.50000 418.400000
5310 13724 8392 1 109.50000 418.400000
5310 13724 8393 1 109.50000 418.400000
8392 13724 8393 1 109.50000 418.400000
4851 13725 8394 1 109.50000 418.400000
4851 13725 8395 1 109.50000 418.400000
4851 13725 8396 1 109.50000 418.400000
8394 13725 8395 1 109.50000 418.400000
8394 13725 8396 1 109.50000 418.400000
8395 13725 8396 1 109.50000 418.400000
1794 13726 6524 1 109.50000 418.400000
1794 13726 8397 1 109.50000 418.400000
1794 13726 8398 1 109.50000 418.400000
6524 13726 8397 1 109.50000 418.400000
6524 13726 8398 1 109.50000 418.400000
8397 13726 8398 1 109.50000 418.400000
53 13727 6471 1 109.50000 418.400000
53 13727 8399 1 109.50000 418.400000
53 13727 8400 1 109.50000 418.400000
6471 13727 8399 1 109.50000 418.400000
6471 13727 8400 1 109.50000 418.400000
8399 13727 8400 1 109.50000 418.400000
492 13728 5751 1 109.50000 418.400000
492 13728 8401 1 109.50000 418.400000
492 13728 8402 1 109.50000 418.400000
5751 13728 8401 1 109.50000 418.400000
5751 13728 8402 1 109.50000 418.400000
8401 13728 8402 1 109.50000 418.400000
229 13729 4242 1 109.50000 418.400000
229 13729 6526 1 109.50000 418.400000
229 13729 7153 1 109.50000 418.400000
4242 13729 6526 1 109.50000 418.400000
4242 13729 7153 1 109.50000 418.400000
6526 13729 7153 1 109.50000 418.400000
1556 13730 1892 1 109.50000 418.400000
1556 13730 1894 1 109.50000 418.400000
1556 13730 8403 1 109.50000 418.400000
1892 13730 1894 1 109.50000 418.400000
1892 13730 8403 1 109.50000 418.400000
1894 13730 8403 1 109.50000 418.400000
3335 13731 7913 1 109.50000 418.400000
3335 13731 8406 1 109.50000 418.400000
3335 13731 8407 1 109.50000 418.400000
7913 13731 8406 1 109.50000 418.400000
7913 13731 8407 1 109.50000 418.400000
8406 13731 8407 1 109.50000 418.400000
8408 13732 8409 1 109.50000 418.400000
8408 13732 8410 1 109.50000 418.400000
8408 13732 9452 1 109.50000 418.400000
8409 13732 8410 1 109.50000 418.400000
8409 13732 9452 1 109.50000 418.400000
8410 13732 9452 1 109.50000 418.400000
4315 13733 5789 1 109.50000 418.400000
4315 13733 8411 1 109.50000 418.400000
4315 13733 10028 1 109.50000 418.400000
5789 13733 8411 1 109.50000 418.400000
5789 13733 10028 1 109.50000 418.400000
8411 13733 10028 1 109.50000 418.400000
723 13734 724 1 109.50000 418.400000
723 13734 8413 1 109.50000 418.400000
723 13734 8414 1 109.50000 418.400000
724 13734 8413 1 109.50000 418.400000
724 13734 8414 1 109.50000 418.400000
8413 13734 8414 1 109.50000 418.400000
4512 13735 8415 1 109.50000 418.400000
4512 13735 8416 1 109.50000 418.400000
4512 13735 8417 1 109.50000 418.400000
8415 13735 8416 1 109.50000 418.400000
8415 13735 8417 1 109.50000 418.400000
8416 13735 8417 1 109.50000 418.400000
7428 13736 8418 1 109.50000 418.400000
7428 13736 8419 1 109.50000 418.400000
7428 13736 8420 1 109.50000 418.400000
8418 13736 8419 1 109.50000 418.400000
8418 13736 8420 1 109.50000 418.400000
8419 13736 8420 1 109.50000 418.400000
3384 13737 5223 1 109.50000 418.400000
3384 13737 5224 1 109.50000 418.400000
3384 13737 8422 1 109.50000 418.400000
5223 13737 5224 1 109.50000 418.400000
5223 13737 8422 1 109.50000 418.400000
5224 13737 8422 1 109.50000 418.400000
8367 13738 8423 1 109.50000 418.400000
8367 13738 8424 1 109.50000 418.400000
8367 13738 8425 1 109.50000 418.400000
8423 13738 8424 1 109.50000 418.400000
8423 13738 8425 1 109.50000 418.400000
8424 13738 8425 1 109.50000 418.400000
1018 13739 7611 1 109.50000 418.400000
1018 13739 7812 1 109.50000 418.400000
1018 13739 8427 1 109.50000 418.400000
7611 13739 7812 1 109.50000 418.400000
7611 13739 8427 1 109.50000 418.400000
7812 13739 8427 1 109.50000 418.400000
3883 13740 5131 1 109.50000 418.400000
3883 13740 8430 1 109.50000 418.400000
3883 13740 8431 1 109.50000 418.400000
5131 13740 8430 1 109.50000 418.400000
5131 13740 8431 1 109.50000 418.400000
8430 13740 8431 1 109.50000 418.400000
7569 13741 7968 1 109.50000 418.400000
7569 13741 8432 1 109.50000 418.400000
7569 13741 8433 1 109.50000 418.400000
7968 13741 8432 1 109.50000 418.400000
7968 13741 8433 1 109.50000 418.400000
8432 13741 8433 1 109.50000 418.400000
1151 13742 7600 1 109.50000 418.400000
1151 13742 8434 1 109.50000 418.400000
1151 13742 8435 1 109.50000 418.400000
7600 13742 8434 1 109.50000 418.400000
7600 13742 8435 1 109.50000 418.400000
8434 13742 8435 1 109.50000 418.400000
887 13743 8369 1 109.50000 418.400000
887 13743 8438 1 109.50000 418.400000
887 13743 8439 1 109.50000 418.400000
8369 13743 8438 1 109.50000 418.400000
8369 13743 8439 1 109.50000 418.400000
8438 13743 8439 1 109.50000 418.400000
3941 13744 4544 1 109.50000 418.400000
3941 13744 8440 1 109.50000 418.400000
3941 13744 8441 1 109.50000 418.400000
4544 13744 8440 1 109.50000 418.400000
4544 13744 8441 1 109.50000 418.400000
8440 13744 8441 1 109.50000 418.400000
4828 13745 5309 1 109.50000 418.400000
4828 13745 7694 1 109.50000 418.400000
4828 13745 8442 1 109.50000 418.400000
5309 13745 7694 1 109.50000 418.400000
5309 13745 8442 1 109.50000 418.400000
7694 13745 8442 1 109.50000 418.400000
809 13746 2792 1 109.50000 418.400000
809 13746 8151 1 109.50000 418.400000
809 13746 8443 1 109.50000 418.400000
2792 13746 8151 1 109.50000 418.400000
2792 13746 8443 1 109.50000 418.400000
8151 13746 8443 1 109.50000 418.400000
1737 13747 5982 1 109.50000 418.400000
1737 13747 8444 1 109.50000 418.400000
1737 13747 10296 1 109.50000 418.400000
5982 13747 8444 1 109.50000 418.400000
5982 13747 10296 1 109.50000 418.400000
8444 13747 10296 1 109.50000 418.400000
2120 13748 8445 1 109.50000 418.400000
2120 13748 8446 1 109.50000 418.400000
2120 13748 8447 1 109.50000 418.400000
8445 13748 8446 1 109.50000 418.400000
8445 13748 8447 1 109.50000 418.400000
8446 13748 8447 1 109.50000 418.400000
1255 13749 4993 1 109.50000 418.400000
1255 13749 8448 1 109.50000 418.400000
1255 13749 8449 1 109.50000 418.400000
4993 13749 8448 1 109.50000 418.400000
4993 13749 8449 1 109.50000 418.400000
8448 13749 8449 1 109.50000 418.400000
8451 13750 8452 1 109.50000 418.400000
8451 13750 8453 1 109.50000 418.400000
8451 13750 10489 1 109.50000 418.400000
8452 13750 8453 1 109.50000 418.400000
8452 13750 10489 1 109.50000 418.400000
8453 13750 10489 1 109.50000 418.400000
40 13751 3667 1 109.50000 418.400000
40 13751 5549 1 109.50000 418.400000
40 13751 8455 1 109.50000 418.400000
3667 13751 5549 1 109.50000 418.400000
3667 13751 8455 1 109.50000 418.400000
5549 13751 8455 1 109.50000 418.400000
2182 13752 5336 1 109.50000 418.400000
2182 13752 5337 1 109.50000 418.400000
2182 13752 8193 1 109.50000 418.400000
5336 13752 5337 1 109.50000 418.400000
5336 13752 8193 1 109.50000 418.400000
5337 13752 8193 1 109.50000 418.400000
1785 13753 3637 1 109.50000 418.400000
1785 13753 8457 1 109.50000 418.400000
1785 13753 8458 1 109.50000 418.400000
3637 13753 8457 1 109.50000 418.400000
3637 13753 8458 1 109.50000 418.400000
8457 13753 8458 1 109.50000 418.400000
3714 13754 3955 1 109.50000 418.400000
3714 13754 7185 1 109.50000 418.400000
3714 13754 8460 1 109.50000 418.400000
3955 13754 7185 1 109.50000 418.400000
3955 13754 8460 1 109.50000 418.400000
7185 13754 8460 1 109.50000 418.400000
57 13755 8462 1 109.50000 418.400000
57 13755 8463 1 109.50000 418.400000
57 13755 8464 1 109.50000 418.400000
8462 13755 8463 1 109.50000 418.400000
8462 13755 8464 1 109.50000 418.400000
8463 13755 8464 1 109.50000 418.400000
158 13756 5937 1 109.50000 418.400000
158 13756 8465 1 109.50000 418.400000
158 13756 8466 1 109.50000 418.400000
5937 13756 8465 1 109.50000 418.400000
5937 13756 8466 1 109.50000 418.400000
8465 13756 8466 1 109.50000 418.400000
1564 13757 5066 1 109.50000 418.400000
1564 13757 6326 1 109.50000 418.400000
1564 13757 8467 1 109.50000 418.400000
5066 13757 6326 1 109.50000 418.400000
5066 13757 8467 1 109.50000 418.400000
6326 13757 8467 1 109.50000 418.400000
8468 13758 8469 1 109.50000 418.400000
8468 13758 8470 1 109.50000 418.400000
8468 13758 8471 1 109.50000 418.400000
8469 13758 8470 1 109.50000 418.400000
8469 13758 8471 1 109.50000 418.400000
8470 13758 8471 1 109.50000 418.400000
2766 13759 3469 1 109.50000 418.400000
2766 13759 6723 1 109.50000 418.400000
2766 13759 8472 1 109.50000 418.400000
3469 13759 6723 1 109.50000 418.400000
3469 13759 8472 1 109.50000 418.400000
6723 13759 8472 1 109.50000 418.400000
1365 13760 5944 1 109.50000 418.400000
1365 13760 7058 1 109.50000 418.400000
1365 13760 7397 1 109.50000 418.400000
5944 13760 7058 1 109.50000 418.400000
5944 13760 7397 1 109.50000 418.400000
7058 13760 7397 1 109.50000 418.400000
1336 13761 6940 1 109.50000 418.400000
1336 13761 7618 1 109.50000 418.400000
1336 13761 8475 1 109.50000 418.400000
6940 13761 7618 1 109.50000 418.400000
6940 13761 8475 1 109.50000 418.400000
7618 13761 8475 1 109.50000 418.400000
4655 13762 7737 1 109.50000 418.400000
4655 13762 8476 1 109.50000 418.400000
4655 13762 8477 1 109.50000 418.400000
7737 13762 8476 1 109.50000 418.400000
7737 13762 8477 1 109.50000 418.400000
8476 13762 8477 1 109.50000 418.400000
5729 13763 8478 1 109.50000 418.400000
5729 13763 8479 1 109.50000 418.400000
5729 13763 8480 1 109.50000 418.400000
8478 13763 8479 1 109.50000 418.400000
8478 13763 8480 1 109.50000 418.400000
8479 13763 8480 1 109.50000 418.400000
5250 13764 6998 1 109.50000 418.400000
5250 13764 8481 1 109.50000 418.400000
5250 13764 8482 1 109.50000 418.400000
6998 13764 8481 1 109.50000 418.400000
6998 13764 8482 1 109.50000 418.400000
8481 13764 8482 1 109.50000 418.400000
2973 13765 3357 1 109.50000 418.400000
2973 13765 3359 1 109.50000 418.400000
2973 13765 8483 1 109.50000 418.400000
3357 13765 3359 1 109.50000 418.400000
3357 13765 8483 1 109.50000 418.400000
3359 13765 8483 1 109.50000 418.400000
4402 13766 5663 1 109.50000 418.400000
4402 13766 8484 1 109.50000 418.400000
4402 13766 8485 1 109.50000 418.400000
5663 13766 8484 1 109.50000 418.400000
5663 13766 8485 1 109.50000 418.400000
8484 13766 8485 1 109.50000 418.400000
3433 13767 8486 1 109.50000 418.400000
3433 13767 8487 1 109.50000 418.400000
3433 13767 8488 1 109.50000 418.400000
8486 13767 8487 1 109.50000 418.400000
8486 13767 8488 1 109.50000 418.400000
8487 13767 8488 1 109.50000 418.400000
3334 13768 8489 1 109.50000 418.400000
3334 13768 8490 1 109.50000 418.400000
3334 13768 8491 1 109.50000 418.400000
8489 13768 8490 1 109.50000 418.400000
8489 13768 8491 1 109.50000 418.400000
8490 13768 8491 1 109.50000 418.400000
5040 13769 7525 1 109.50000 418.400000
5040 13769 8493 1 109.50000 418.400000
5040 13769 8494 1 109.50000 418.400000
7525 13769 8493 1 109.50000 418.400000
7525 13769 8494 1 109.50000 418.400000
8493 13769 8494 1 109.50000 418.400000
4823 13770 7480 1 109.50000 418.400000
4823 13770 8495 1 109.50000 418.400000
4823 13770 8496 1 109.50000 418.400000
7480 13770 8495 1 109.50000 418.400000
7480 13770 8496 1 109.50000 418.400000
8495 13770 8496 1 109.50000 418.400000
7637 13771 8498 1 109.50000 418.400000
7637 13771 8500 1 109.50000 418.400000
7637 13771 10407 1 109.50000 418.400000
8498 13771 8500 1 109.50000 418.400000
8498 13771 10407 1 109.50000 418.400000
8500 13771 10407 1 109.50000 418.400000
7298 13772 8502 1 109.50000 418.400000
7298 13772 8503 1 109.50000 418.400000
7298 13772 8504 1 109.50000 418.400000
8502 13772 8503 1 109.50000 418.400000
8502 13772 8504 1 109.50000 418.400000
8503 13772 8504 1 109.50000 418.400000
3133 13773 3134 1 109.50000 418.400000
3133 13773 3135 1 109.50000 418.400000
3133 13773 5068 1 109.50000 418.400000
3134 13773 3135 1 109.50000 418.400000
3134 13773 5068 1 109.50000 418.400000
3135 13773 5068 1 109.50000 418.400000
3415 13774 8257 1 109.50000 418.400000
3415 13774 8507 1 109.50000 418.400000
3415 13774 10406 1 109.50000 418.400000
8257 13774 8507 1 109.50000 418.400000
8257 13774 10406 1 109.50000 418.400000
8507 13774 10406 1 109.50000 418.400000
3708 13775 8508 1 109.50000 418.400000
3708 13775 8509 1 109.50000 418.400000
3708 13775 8510 1 109.50000 418.400000
8508 13775 8509 1 109.50000 418.400000
8508 13775 8510 1 109.50000 418.400000
8509 13775 8510 1 109.50000 418.400000
898 13776 1403 1 109.50000 418.400000
898 13776 1405 1 109.50000 418.400000
898 13776 8513 1 109.50000 418.400000
1403 13776 1405 1 109.50000 418.400000
1403 13776 8513 1 109.50000 418.400000
1405 13776 8513 1 109.50000 418.400000
2401 13777 8514 1 109.50000 418.400000
2401 13777 8515 1 109.50000 418.400000
2401 13777 8516 1 109.50000 418.400000
8514 13777 8515 1 109.50000 418.400000
8514 13777 8516 1 109.50000 418.400000
8515 13777 8516 1 109.50000 418.400000
447 13778 3811 1 109.50000 418.400000
447 13778 4226 1 109.50000 418.400000
447 13778 8517 1 109.50000 418.400000
3811 13778 4226 1 109.50000 418.400000
3811 13778 8517 1 109.50000 418.400000
4226 13778 8517 1 109.50000 418.400000
975 13779 2445 1 109.50000 418.400000
975 13779 8518 1 109.50000 418.400000
975 13779 11217 1 109.50000 418.400000
2445 13779 8518 1 109.50000 418.400000
2445 13779 11217 1 109.50000 418.400000
8518 13779 11217 1 109.50000 418.400000
3076 13780 8078 1 109.50000 418.400000
3076 13780 8445 1 109.50000 418.400000
3076 13780 8519 1 109.50000 418.400000
8078 13780 8445 1 109.50000 418.400000
8078 13780 8519 1 109.50000 418.400000
8445 13780 8519 1 109.50000 418.400000
3144 13781 8521 1 109.50000 418.400000
3144 13781 8522 1 109.50000 418.400000
3144 13781 10638 1 109.50000 418.400000
8521 13781 8522 1 109.50000 418.400000
8521 13781 10638 1 109.50000 418.400000
8522 13781 10638 1 109.50000 418.400000
259 13782 8163 1 109.50000 418.400000
259 13782 8523 1 109.50000 418.400000
259 13782 8524 1 109.50000 418.400000
8163 13782 8523 1 109.50000 418.400000
8163 13782 8524 1 109.50000 418.400000
8523 13782 8524 1 109.50000 418.400000
235 13783 236 1 109.50000 418.400000
235 13783 237 1 109.50000 418.400000
235 13783 238 1 109.50000 418.400000
236 13783 237 1 109.50000 418.400000
236 13783 238 1 109.50000 418.400000
237 13783 238 1 109.50000 418.400000
6903 13784 8353 1 109.50000 418.400000
6903 13784 8528 1 109.50000 418.400000
6903 13784 8529 1 109.50000 418.400000
8353 13784 8528 1 109.50000 418.400000
8353 13784 8529 1 109.50000 418.400000
8528 13784 8529 1 109.50000 418.400000
683 13785 685 1 109.50000 418.400000
683 13785 8530 1 109.50000 418.400000
683 13785 8531 1 109.50000 418.400000
685 13785 8530 1 109.50000 418.400000
685 13785 8531 1 109.50000 418.400000
8530 13785 8531 1 109.50000 418.400000
1675 13786 8532 1 109.50000 418.400000
1675 13786 8533 1 109.50000 418.400000
1675 13786 8534 1 109.50000 418.400000
8532 13786 8533 1 109.50000 418.400000
8532 13786 8534 1 109.50000 418.400000
8533 13786 8534 1 109.50000 418.400000
4442 13787 8535 1 109.50000 418.400000
4442 13787 8536 1 109.50000 418.400000
4442 13787 8537 1 109.50000 418.400000
8535 13787 8536 1 109.50000 418.400000
8535 13787 8537 1 109.50000 418.400000
8536 13787 8537 1 109.50000 418.400000
1799 13788 8506 1 109.50000 418.400000
1799 13788 8538 1 109.50000 418.400000
1799 13788 8539 1 109.50000 418.400000
8506 13788 8538 1 109.50000 418.400000
8506 13788 8539 1 109.50000 418.400000
8538 13788 8539 1 109.50000 418.400000
1087 13789 8540 1 109.50000 418.400000
1087 13789 8541 1 109.50000 418.400000
1087 13789 8542 1 109.50000 418.400000
8540 13789 8541 1 109.50000 418.400000
8540 13789 8542 1 109.50000 418.400000
8541 13789 8542 1 109.50000 418.400000
567 13790 8543 1 109.50000 418.400000
567 13790 8544 1 109.50000 418.400000
567 13790 8545 1 109.50000 418.400000
8543 13790 8544 1 109.50000 418.400000
8543 13790 8545 1 109.50000 418.400000
8544 13790 8545 1 109.50000 418.400000
421 13791 4011 1 109.50000 418.400000
421 13791 8343 1 109.50000 418.400000
421 13791 8546 1 109.50000 418.400000
4011 13791 8343 1 109.50000 418.400000
4011 13791 8546 1 109.50000 418.400000
8343 13791 8546 1 109.50000 418.400000
4212 13792 8547 1 109.50000 418.400000
4212 13792 8548 1 109.50000 418.400000
4212 13792 8549 1 109.50000 418.400000
8547 13792 8548 1 109.50000 418.400000
8547 13792 8549 1 109.50000 418.400000
8548 13792 8549 1 109.50000 418.400000
565 13793 8551 1 109.50000 418.400000
565 13793 8552 1 109.50000 418.400000
565 13793 8553 1 109.50000 418.400000
8551 13793 8552 1 109.50000 418.400000
8551 13793 8553 1 109.50000 418.400000
8552 13793 8553 1 109.50000 418.400000
1948 13794 6145 1 109.50000 418.400000
1948 13794 6146 1 109.50000 418.400000
1948 13794 6147 1 109.50000 418.400000
6145 13794 6146 1 109.50000 418.400000
6145 13794 6147 1 109.50000 418.400000
6146 13794 6147 1 109.50000 418.400000
7075 13795 7999 1 109.50000 418.400000
7075 13795 8554 1 109.50000 418.400000
7075 13795 8555 1 109.50000 418.400000
7999 13795 8554 1 109.50000 418.400000
7999 13795 8555 1 109.50000 418.400000
8554 13795 8555 1 109.50000 418.400000
6370 13796 8007 1 109.50000 418.400000
6370 13796 8556 1 109.50000 418.400000
6370 13796 8557 1 109.50000 418.400000
8007 13796 8556 1 109.50000 418.400000
8007 13796 8557 1 109.50000 418.400000
8556 13796 8557 1 109.50000 418.400000
4453 13797 4712 1 109.50000 418.400000
4453 13797 8558 1 109.50000 418.400000
4453 13797 8559 1 109.50000 418.400000
4712 13797 8558 1 109.50000 418.400000
4712 13797 8559 1 109.50000 418.400000
8558 13797 8559 1 109.50000 418.400000
5758 13798 8338 1 109.50000 418.400000
5758 13798 8560 1 109.50000 418.400000
5758 13798 8561 1 109.50000 418.400000
8338 13798 8560 1 109.50000 418.400000
8338 13798 8561 1 109.50000 418.400000
8560 13798 8561 1 109.50000 418.400000
2512 13799 7876 1 109.50000 418.400000
2512 13799 8414 1 109.50000 418.400000
2512 13799 8563 1 109.50000 418.400000
7876 13799 8414 1 109.50000 418.400000
7876 13799 8563 1 109.50000 418.400000
8414 13799 8563 1 109.50000 418.400000
192 13800 6424 1 109.50000 418.400000
192 13800 8564 1 109.50000 418.400000
192 13800 8565 1 109.50000 418.400000
6424 13800 8564 1 109.50000 418.400000
6424 13800 8565 1 109.50000 418.400000
8564 13800 8565 1 109.50000 418.400000
705 13801 6707 1 109.50000 418.400000
705 13801 6769 1 109.50000 418.400000
705 13801 8566 1 109.50000 418.400000
6707 13801 6769 1 109.50000 418.400000
6707 13801 8566 1 109.50000 418.400000
6769 13801 8566 1 109.50000 418.400000
1883 13802 5101 1 109.50000 418.400000
1883 13802 8171 1 109.50000 418.400000
1883 13802 8567 1 109.50000 418.400000
5101 13802 8171 1 109.50000 418.400000
5101 13802 8567 1 109.50000 418.400000
8171 13802 8567 1 109.50000 418.400000
5752 13803 6385 1 109.50000 418.400000
5752 13803 8568 1 109.50000 418.400000
5752 13803 8569 1 109.50000 418.400000
6385 13803 8568 1 109.50000 418.400000
6385 13803 8569 1 109.50000 418.400000
8568 13803 8569 1 109.50000 418.400000
5541 13804 8570 1 109.50000 418.400000
5541 13804 8571 1 109.50000 418.400000
5541 13804 8572 1 109.50000 418.400000
8570 13804 8571 1 109.50000 418.400000
8570 13804 8572 1 109.50000 418.400000
8571 13804 8572 1 109.50000 418.400000
642 13805 4906 1 109.50000 418.400000
642 13805 7467 1 109.50000 418.400000
642 13805 8100 1 109.50000 418.400000
4906 13805 7467 1 109.50000 418.400000
4906 13805 8100 1 109.50000 418.400000
7467 13805 8100 1 109.50000 418.400000
2530 13806 4395 1 109.50000 418.400000
2530 13806 8318 1 109.50000 418.400000
2530 13806 8575 1 109.50000 418.400000
4395 13806 8318 1 109.50000 418.400000
4395 13806 8575 1 109.50000 418.400000
8318 13806 8575 1 109.50000 418.400000
8576 13807 8577 1 109.50000 418.400000
8576 13807 8578 1 109.50000 418.400000
8576 13807 8579 1 109.50000 418.400000
8577 13807 8578 1 109.50000 418.400000
8577 13807 8579 1 109.50000 418.400000
8578 13807 8579 1 109.50000 418.400000
1545 13808 7839 1 109.50000 418.400000
1545 13808 8580 1 109.50000 418.400000
1545 13808 8581 1 109.50000 418.400000
7839 13808 8580 1 109.50000 418.400000
7839 13808 8581 1 109.50000 418.400000
8580 13808 8581 1 109.50000 418.400000
2306 13809 5192 1 109.50000 418.400000
2306 13809 6231 1 109.50000 418.400000
2306 13809 8582 1 109.50000 418.400000
5192 13809 6231 1 109.50000 418.400000
5192 13809 8582 1 109.50000 418.400000
6231 13809 8582 1 109.50000 418.400000
8583 13810 8584 1 109.50000 418.400000
8583 13810 8585 1 109.50000 418.400000
8583 13810 10727 1 109.50000 418.400000
8584 13810 8585 1 109.50000 418.400000
8584 13810 10727 1 109.50000 418.400000
8585 13810 10727 1 109.50000 418.400000
5568 13811 6462 1 109.50000 418.400000
5568 13811 8586 1 109.50000 418.400000
5568 13811 8587 1 109.50000 418.400000
6462 13811 8586 1 109.50000 418.400000
6462 13811 8587 1 109.50000 418.400000
8586 13811 8587 1 109.50000 418.400000
798 13812 4736 1 109.50000 418.400000
798 13812 8588 1 109.50000 418.400000
798 13812 8589 1 109.50000 418.400000
4736 13812 8588 1 109.50000 418.400000
4736 13812 8589 1 109.50000 418.400000
8588 13812 8589 1 109.50000 418.400000
1371 13813 8590 1 109.50000 418.400000
1371 13813 8591 1 109.50000 418.400000
1371 13813 8592 1 109.50000 418.400000
8590 13813 8591 1 109.50000 418.400000
8590 13813 8592 1 109.50000 418.400000
8591 13813 8592 1 109.50000 418.400000
5445 13814 5446 1 109.50000 418.400000
5445 13814 8594 1 109.50000 418.400000
5445 13814 8595 1 109.50000 418.400000
5446 13814 8594 1 109.50000 418.400000
5446 13814 8595 1 109.50000 418.400000
8594 13814 8595 1 109.50000 418.400000
273 13815 8596 1 109.50000 418.400000
273 13815 8597 1 109.50000 418.400000
273 13815 8598 1 109.50000 418.400000
8596 13815 8597 1 109.50000 418.400000
8596 13815 8598 1 109.50000 418.400000
8597 13815 8598 1 109.50000 418.400000
8068 13816 8599 1 109.50000 418.400000
8068 13816 8600 1 109.50000 418.400000
8068 13816 8601 1 109.50000 418.400000
8599 13816 8600 1 109.50000 418.400000
8599 13816 8601 1 109.50000 418.400000
8600 13816 8601 1 109.50000 418.400000
7823 13817 8244 1 109.50000 418.400000
7823 13817 8602 1 109.50000 418.400000
7823 13817 8603 1 109.50000 418.400000
8244 13817 8602 1 109.50000 418.400000
8244 13817 8603 1 109.50000 418.400000
8602 13817 8603 1 109.50000 418.400000
2359 13818 3926 1 109.50000 418.400000
2359 13818 6933 1 109.50000 418.400000
2359 13818 8125 1 109.50000 418.400000
3926 13818 6933 1 109.50000 418.400000
3926 13818 8125 1 109.50000 418.400000
6933 13818 8125 1 109.50000 418.400000
1249 13819 5587 1 109.50000 418.400000
1249 13819 6876 1 109.50000 418.400000
1249 13819 8604 1 109.50000 418.400000
5587 13819 6876 1 109.50000 418.400000
5587 13819 8604 1 109.50000 418.400000
6876 13819 8604 1 109.50000 418.400000
8605 13820 8606 1 109.50000 418.400000
8605 13820 8607 1 109.50000 418.400000
8605 13820 8608 1 109.50000 418.400000
8606 13820 8607 1 109.50000 418.400000
8606 13820 8608 1 109.50000 418.400000
8607 13820 8608 1 109.50000 418.400000
169 13821 7251 1 109.50000 418.400000
169 13821 7252 1 109.50000 418.400000
169 13821 8609 1 109.50000 418.400000
7251 13821 7252 1 109.50000 418.400000
7251 13821 8609 1 109.50000 418.400000
7252 13821 8609 1 109.50000 418.400000
1911 13822 1912 1 109.50000 418.400000
1911 13822 8610 1 109.50000 418.400000
1911 13822 8611 1 109.50000 418.400000
1912 13822 8610 1 109.50000 418.400000
1912 13822 8611 1 109.50000 418.400000
8610 13822 8611 1 109.50000 418.400000
6155 13823 7907 1 109.50000 418.400000
6155 13823 8613 1 109.50000 418.400000
6155 13823 8614 1 109.50000 418.400000
7907 13823 8613 1 109.50000 418.400000
7907 13823 8614 1 109.50000 418.400000
8613 13823 8614 1 109.50000 418.400000
6228 13824 8041 1 109.50000 418.400000
6228 13824 8615 1 109.50000 418.400000
6228 13824 8616 1 109.50000 418.400000
8041 13824 8615 1 109.50000 418.400000
8041 13824 8616 1 109.50000 418.400000
8615 13824 8616 1 109.50000 418.400000
5526 13825 8555 1 109.50000 418.400000
5526 13825 8619 1 109.50000 418.400000
5526 13825 8620 1 109.50000 418.400000
8555 13825 8619 1 109.50000 418.400000
8555 13825 8620 1 109.50000 418.400000
8619 13825 8620 1 109.50000 418.400000
671 13826 673 1 109.50000 418.400000
671 13826 8623 1 109.50000 418.400000
671 13826 8624 1 109.50000 418.400000
673 13826 8623 1 109.50000 418.400000
673 13826 8624 1 109.50000 418.400000
8623 13826 8624 1 109.50000 418.400000
1089 13827 1175 1 109.50000 418.400000
1089 13827 4769 1 109.50000 418.400000
1089 13827 8625 1 109.50000 418.400000
1175 13827 4769 1 109.50000 418.400000
1175 13827 8625 1 109.50000 418.400000
4769 13827 8625 1 109.50000 418.400000
8626 13828 8627 1 109.50000 418.400000
8626 13828 8628 1 109.50000 418.400000
8626 13828 8629 1 109.50000 418.400000
8627 13828 8628 1 109.50000 418.400000
8627 13828 8629 1 109.50000 418.400000
8628 13828 8629 1 109.50000 418.400000
5249 13829 6101 1 109.50000 418.400000
5249 13829 6759 1 109.50000 418.400000
5249 13829 8630 1 109.50000 418.400000
6101 13829 6759 1 109.50000 418.400000
6101 13829 8630 1 109.50000 418.400000
6759 13829 8630 1 109.50000 418.400000
6154 13830 8631 1 109.50000 418.400000
6154 13830 8632 1 109.50000 418.400000
6154 13830 8633 1 109.50000 418.400000
8631 13830 8632 1 109.50000 418.400000
8631 13830 8633 1 109.50000 418.400000
8632 13830 8633 1 109.50000 418.400000
2753 13831 3208 1 109.50000 418.400000
2753 13831 5620 1 109.50000 418.400000
2753 13831 8639 1 109.50000 418.400000
3208 13831 5620 1 109.50000 418.400000
3208 13831 8639 1 109.50000 418.400000
5620 13831 8639 1 109.50000 418.400000
1431 13832 3863 1 109.50000 418.400000
1431 13832 8640 1 109.50000 418.400000
1431 13832 10134 1 109.50000 418.400000
3863 13832 8640 1 109.50000 418.400000
3863 13832 10134 1 109.50000 418.400000
8640 13832 10134 1 109.50000 418.400000
1885 13833 5835 1 109.50000 418.400000
1885 13833 8641 1 109.50000 418.400000
1885 13833 8642 1 109.50000 418.400000
5835 13833 8641 1 109.50000 418.400000
5835 13833 8642 1 109.50000 418.400000
8641 13833 8642 1 109.50000 418.400000
1953 13834 7589 1 109.50000 418.400000
1953 13834 8643 1 109.50000 418.400000
1953 13834 8644 1 109.50000 418.400000
7589 13834 8643 1 109.50000 418.400000
7589 13834 8644 1 109.50000 418.400000
8643 13834 8644 1 109.50000 418.400000
3541 13835 4399 1 109.50000 418.400000
3541 13835 8645 1 109.50000 418.400000
3541 13835 8646 1 109.50000 418.400000
4399 13835 8645 1 109.50000 418.400000
4399 13835 8646 1 109.50000 418.400000
8645 13835 8646 1 109.50000 418.400000
1599 13836 1771 1 109.50000 418.400000
1599 13836 8649 1 109.50000 418.400000
1599 13836 8650 1 109.50000 418.400000
1771 13836 8649 1 109.50000 418.400000
1771 13836 8650 1 109.50000 418.400000
8649 13836 8650 1 109.50000 418.400000
1353 13837 5796 1 109.50000 418.400000
1353 13837 7943 1 109.50000 418.400000
1353 13837 8651 1 109.50000 418.400000
5796 13837 7943 1 109.50000 418.400000
5796 13837 8651 1 109.50000 418.400000
7943 13837 8651 1 109.50000 418.400000
3022 13838 4984 1 109.50000 418.400000
3022 13838 8386 1 109.50000 418.400000
3022 13838 8652 1 109.50000 418.400000
4984 13838 8386 1 109.50000 418.400000
4984 13838 8652 1 109.50000 418.400000
8386 13838 8652 1 109.50000 418.400000
2079 13839 3092 1 109.50000 418.400000
2079 13839 8653 1 109.50000 418.400000
2079 13839 8654 1 109.50000 418.400000
3092 13839 8653 1 109.50000 418.400000
3092 13839 8654 1 109.50000 418.400000
8653 13839 8654 1 109.50000 418.400000
2423 13840 5314 1 109.50000 418.400000
2423 13840 8655 1 109.50000 418.400000
2423 13840 8656 1 109.50000 418.400000
5314 13840 8655 1 109.50000 418.400000
5314 13840 8656 1 109.50000 418.400000
8655 13840 8656 1 109.50000 418.400000
349 13841 4436 1 109.50000 418.400000
349 13841 8231 1 109.50000 418.400000
349 13841 8659 1 109.50000 418.400000
4436 13841 8231 1 109.50000 418.400000
4436 13841 8659 1 109.50000 418.400000
8231 13841 8659 1 109.50000 418.400000
3226 13842 6832 1 109.50000 418.400000
3226 13842 8660 1 109.50000 418.400000
3226 13842 8661 1 109.50000 418.400000
6832 13842 8660 1 109.50000 418.400000
6832 13842 8661 1 109.50000 418.400000
8660 13842 8661 1 109.50000 418.400000
8662 13843 8663 1 109.50000 418.400000
8662 13843 8664 1 109.50000 418.400000
8662 13843 8665 1 109.50000 418.400000
8663 13843 8664 1 109.50000 418.400000
8663 13843 8665 1 109.50000 418.400000
8664 13843 8665 1 109.50000 418.400000
2810 13844 7035 1 109.50000 418.400000
2810 13844 8668 1 109.50000 418.400000
2810 13844 10862 1 109.50000 418.400000
7035 13844 8668 1 109.50000 418.400000
7035 13844 10862 1 109.50000 418.400000
8668 13844 10862 1 109.50000 418.400000
2931 13845 4113 1 109.50000 418.400000
2931 13845 7501 1 109.50000 418.400000
2931 13845 8669 1 109.50000 418.400000
4113 13845 7501 1 109.50000 418.400000
4113 13845 8669 1 109.50000 418.400000
7501 13845 8669 1 109.50000 418.400000
771 13846 4490 1 109.50000 418.400000
771 13846 8670 1 109.50000 418.400000
771 13846 8671 1 109.50000 418.400000
4490 13846 8670 1 109.50000 418.400000
4490 13846 8671 1 109.50000 418.400000
8670 13846 8671 1 109.50000 418.400000
2387 13847 4945 1 109.50000 418.400000
2387 13847 5421 1 109.50000 418.400000
2387 13847 8484 1 109.50000 418.400000
4945 13847 5421 1 109.50000 418.400000
4945 13847 8484 1 109.50000 418.400000
5421 13847 8484 1 109.50000 418.400000
2137 13848 2853 1 109.50000 418.400000
2137 13848 8673 1 109.50000 418.400000
2137 13848 8674 1 109.50000 418.400000
2853 13848 8673 1 109.50000 418.400000
2853 13848 8674 1 109.50000 418.400000
8673 13848 8674 1 109.50000 418.400000
832 13849 8476 1 109.50000 418.400000
832 13849 8528 1 109.50000 418.400000
832 13849 8628 1 109.50000 418.400000
8476 13849 8528 1 109.50000 418.400000
8476 13849 8628 1 109.50000 418.400000
8528 13849 8628 1 109.50000 418.400000
7612 13850 8675 1 109.50000 418.400000
7612 13850 8676 1 109.50000 418.400000
7612 13850 8677 1 109.50000 418.400000
8675 13850 8676 1 109.50000 418.400000
8675 13850 8677 1 109.50000 418.400000
8676 13850 8677 1 109.50000 418.400000
2856 13851 6536 1 109.50000 418.400000
2856 13851 8594 1 109.50000 418.400000
2856 13851 8678 1 109.50000 418.400000
6536 13851 8594 1 109.50000 418.400000
6536 13851 8678 1 109.50000 418.400000
8594 13851 8678 1 109.50000 418.400000
1506 13852 2943 1 109.50000 418.400000
1506 13852 8680 1 109.50000 418.400000
1506 13852 10884 1 109.50000 418.400000
2943 13852 8680 1 109.50000 418.400000
2943 13852 10884 1 109.50000 418.400000
8680 13852 10884 1 109.50000 418.400000
8681 13853 8682 1 109.50000 418.400000
8681 13853 8683 1 109.50000 418.400000
8681 13853 8684 1 109.50000 418.400000
8682 13853 8683 1 109.50000 418.400000
8682 13853 8684 1 109.50000 418.400000
8683 13853 8684 1 109.50000 418.400000
5028 13854 5781 1 109.50000 418.400000
5028 13854 5932 1 109.50000 418.400000
5028 13854 8685 1 109.50000 418.400000
5781 13854 5932 1 109.50000 418.400000
5781 13854 8685 1 109.50000 418.400000
5932 13854 8685 1 109.50000 418.400000
6935 13855 8686 1 109.50000 418.400000
6935 13855 8687 1 109.50000 418.400000
6935 13855 9384 1 109.50000 418.400000
8686 13855 8687 1 109.50000 418.400000
8686 13855 9384 1 109.50000 418.400000
8687 13855 9384 1 109.50000 418.400000
37 13856 5203 1 109.50000 418.400000
37 13856 8688 1 109.50000 418.400000
37 13856 8689 1 109.50000 418.400000
5203 13856 8688 1 109.50000 418.400000
5203 13856 8689 1 109.50000 418.400000
8688 13856 8689 1 109.50000 418.400000
1832 13857 7406 1 109.50000 418.400000
1832 13857 7799 1 109.50000 418.400000
1832 13857 8690 1 109.50000 418.400000
7406 13857 7799 1 109.50000 418.400000
7406 13857 8690 1 109.50000 418.400000
7799 13857 8690 1 109.50000 418.400000
8691 13858 8692 1 109.50000 418.400000
8691 13858 8693 1 109.50000 418.400000
8691 13858 8694 1 109.50000 418.400000
8692 13858 8693 1 109.50000 418.400000
8692 13858 8694 1 109.50000 418.400000
8693 13858 8694 1 109.50000 418.400000
747 13859 7297 1 109.50000 418.400000
747 13859 8211 1 109.50000 418.400000
747 13859 8695 1 109.50000 418.400000
7297 13859 8211 1 109.50000 418.400000
7297 13859 8695 1 109.50000 418.400000
8211 13859 8695 1 109.50000 418.400000
3833 13860 5545 1 109.50000 418.400000
3833 13860 8696 1 109.50000 418.400000
3833 13860 9940 1 109.50000 418.400000
5545 13860 8696 1 109.50000 418.400000
5545 13860 9940 1 109.50000 418.400000
8696 13860 9940 1 109.50000 418.400000
5304 13861 6528 1 109.50000 418.400000
5304 13861 7394 1 109.50000 418.400000
5304 13861 8697 1 109.50000 418.400000
6528 13861 7394 1 109.50000 418.400000
6528 13861 8697 1 109.50000 418.400000
7394 13861 8697 1 109.50000 418.400000
402 13862 6739 1 109.50000 418.400000
402 13862 8698 1 109.50000 418.400000
402 13862 8699 1 109.50000 418.400000
6739 13862 8698 1 109.50000 418.400000
6739 13862 8699 1 109.50000 418.400000
8698 13862 8699 1 109.50000 418.400000
6600 13863 8700 1 109.50000 418.400000
6600 13863 8701 1 109.50000 418.400000
6600 13863 11191 1 109.50000 418.400000
8700 13863 8701 1 109.50000 418.400000
8700 13863 11191 1 109.50000 418.400000
8701 13863 11191 1 109.50000 418.400000
649 13864 1639 1 109.50000 418.400000
649 13864 8702 1 109.50000 418.400000
649 13864 8703 1 109.50000 418.400000
1639 13864 8702 1 109.50000 418.400000
1639 13864 8703 1 109.50000 418.400000
8702 13864 8703 1 109.50000 418.400000
1798 13865 6143 1 109.50000 418.400000
1798 13865 8704 1 109.50000 418.400000
1798 13865 8705 1 109.50000 418.400000
6143 13865 8704 1 109.50000 418.400000
6143 13865 8705 1 109.50000 418.400000
8704 13865 8705 1 109.50000 418.400000
3482 13866 3579 1 109.50000 418.400000
3482 13866 8504 1 109.50000 418.400000
3482 13866 8706 1 109.50000 418.400000
3579 13866 8504 1 109.50000 418.400000
3579 13866 8706 1 109.50000 418.400000
8504 13866 8706 1 109.50000 418.400000
1398 13867 3999 1 109.50000 418.400000
1398 13867 6183 1 109.50000 418.400000
1398 13867 7603 1 109.50000 418.400000
3999 13867 6183 1 109.50000 418.400000
3999 13867 7603 1 109.50000 418.400000
6183 13867 7603 1 109.50000 418.400000
4249 13868 8707 1 109.50000 418.400000
4249 13868 8708 1 109.50000 418.400000
4249 13868 8709 1 109.50000 418.400000
8707 13868 8708 1 109.50000 418.400000
8707 13868 8709 1 109.50000 418.400000
8708 13868 8709 1 109.50000 418.400000
7706 13869 7905 1 109.50000 418.400000
7706 13869 8710 1 109.50000 418.400000
7706 13869 8711 1 109.50000 418.400000
7905 13869 8710 1 109.50000 418.400000
7905 13869 8711 1 109.50000 418.400000
8710 13869 8711 1 109.50000 418.400000
3113 13870 4742 1 109.50000 418.400000
3113 13870 7215 1 109.50000 418.400000
3113 13870 8712 1 109.50000 418.400000
4742 13870 7215 1 109.50000 418.400000
4742 13870 8712 1 109.50000 418.400000
7215 13870 8712 1 109.50000 418.400000
20 13871 1035 1 109.50000 418.400000
20 13871 8713 1 109.50000 418.400000
20 13871 8714 1 109.50000 418.400000
1035 13871 8713 1 109.50000 418.400000
1035 13871 8714 1 109.50000 418.400000
8713 13871 8714 1 109.50000 418.400000
2874 13872 6910 1 109.50000 418.400000
2874 13872 7025 1 109.50000 418.400000
2874 13872 8715 1 109.50000 418.400000
6910 13872 7025 1 109.50000 418.400000
6910 13872 8715 1 109.50000 418.400000
7025 13872 8715 1 109.50000 418.400000
3118 13873 8716 1 109.50000 418.400000
3118 13873 8717 1 109.50000 418.400000
3118 13873 8718 1 109.50000 418.400000
8716 13873 8717 1 109.50000 418.400000
8716 13873 8718 1 109.50000 418.400000
8717 13873 8718 1 109.50000 418.400000
706 13874 5985 1 109.50000 418.400000
706 13874 8719 1 109.50000 418.400000
706 13874 8720 1 109.50000 418.400000
5985 13874 8719 1 109.50000 418.400000
5985 13874 8720 1 109.50000 418.400000
8719 13874 8720 1 109.50000 418.400000
381 13875 5281 1 109.50000 418.400000
381 13875 8721 1 109.50000 418.400000
381 13875 8722 1 109.50000 418.400000
5281 13875 8721 1 109.50000 418.400000
5281 13875 8722 1 109.50000 418.400000
8721 13875 8722 1 109.50000 418.400000
2622 13876 8723 1 109.50000 418.400000
2622 13876 8724 1 109.50000 418.400000
2622 13876 8725 1 109.50000 418.400000
8723 13876 8724 1 109.50000 418.400000
8723 13876 8725 1 109.50000 418.400000
8724 13876 8725 1 109.50000 418.400000
2936 13877 8227 1 109.50000 418.400000
2936 13877 8726 1 109.50000 418.400000
2936 13877 8727 1 109.50000 418.400000
8227 13877 8726 1 109.50000 418.400000
8227 13877 8727 1 109.50000 418.400000
8726 13877 8727 1 109.50000 418.400000
3641 13878 8728 1 109.50000 418.400000
3641 13878 8729 1 109.50000 418.400000
3641 13878 8730 1 109.50000 418.400000
8728 13878 8729 1 109.50000 418.400000
8728 13878 8730 1 109.50000 418.400000
8729 13878 8730 1 109.50000 418.400000
1814 13879 7104 1 109.50000 418.400000
1814 13879 8287 1 109.50000 418.400000
1814 13879 8733 1 109.50000 418.400000
7104 13879 8287 1 109.50000 418.400000
7104 13879 8733 1 109.50000 418.400000
8287 13879 8733 1 109.50000 418.400000
967 13880 6867 1 109.50000 418.400000
967 13880 6869 1 109.50000 418.400000
967 13880 8734 1 109.50000 418.400000
6867 13880 6869 1 109.50000 418.400000
6867 13880 8734 1 109.50000 418.400000
6869 13880 8734 1 109.50000 418.400000
2655 13881 2844 1 109.50000 418.400000
2655 13881 8579 1 109.50000 418.400000
2655 13881 8736 1 109.50000 418.400000
2844 13881 8579 1 109.50000 418.400000
2844 13881 8736 1 109.50000 418.400000
8579 13881 8736 1 109.50000 418.400000
411 13882 7570 1 109.50000 418.400000
411 13882 7571 1 109.50000 418.400000
411 13882 8737 1 109.50000 418.400000
7570 13882 7571 1 109.50000 418.400000
7570 13882 8737 1 109.50000 418.400000
7571 13882 8737 1 109.50000 418.400000
7511 13883 8738 1 109.50000 418.400000
7511 13883 8739 1 109.50000 418.400000
7511 13883 8740 1 109.50000 418.400000
8738 13883 8739 1 109.50000 418.400000
8738 13883 8740 1 109.50000 418.400000
8739 13883 8740 1 109.50000 418.400000
5110 13884 7513 1 109.50000 418.400000
5110 13884 7514 1 109.50000 418.400000
5110 13884 8741 1 109.50000 418.400000
7513 13884 7514 1 109.50000 418.400000
7513 13884 8741 1 109.50000 418.400000
7514 13884 8741 1 109.50000 418.400000
3764 13885 7088 1 109.50000 418.400000
3764 13885 8742 1 109.50000 418.400000
3764 13885 8743 1 109.50000 418.400000
7088 13885 8742 1 109.50000 418.400000
7088 13885 8743 1 109.50000 418.400000
8742 13885 8743 1 109.50000 418.400000
486 13886 7797 1 109.50000 418.400000
486 13886 8744 1 109.50000 418.400000
486 13886 8745 1 109.50000 418.400000
7797 13886 8744 1 109.50000 418.400000
7797 13886 8745 1 109.50000 418.400000
8744 13886 8745 1 109.50000 418.400000
3397 13887 8419 1 109.50000 418.400000
3397 13887 8746 1 109.50000 418.400000
3397 13887 10677 1 109.50000 418.400000
8419 13887 8746 1 109.50000 418.400000
8419 13887 10677 1 109.50000 418.400000
8746 13887 10677 1 109.50000 418.400000
653 13888 3264 1 109.50000 418.400000
653 13888 7669 1 109.50000 418.400000
653 13888 8711 1 109.50000 418.400000
3264 13888 7669 1 109.50000 418.400000
3264 13888 8711 1 109.50000 418.400000
7669 13888 8711 1 109.50000 418.400000
2674 13889 8747 1 109.50000 418.400000
2674 13889 8748 1 109.50000 418.400000
2674 13889 8749 1 109.50000 418.400000
8747 13889 8748 1 109.50000 418.400000
8747 13889 8749 1 109.50000 418.400000
8748 13889 8749 1 109.50000 418.400000
618 13890 3405 1 109.50000 418.400000
618 13890 4704 1 109.50000 418.400000
618 13890 8750 1 109.50000 418.400000
3405 13890 4704 1 109.50000 418.400000
3405 13890 8750 1 109.50000 418.400000
4704 13890 8750 1 109.50000 418.400000
2391 13891 4154 1 109.50000 418.400000
2391 13891 4731 1 109.50000 418.400000
2391 13891 8751 1 109.50000 418.400000
4154 13891 4731 1 109.50000 418.400000
4154 13891 8751 1 109.50000 418.400000
4731 13891 8751 1 109.50000 418.400000
2061 13892 4164 1 109.50000 418.400000
2061 13892 8752 1 109.50000 418.400000
2061 13892 8753 1 109.50000 418.400000
4164 13892 8752 1 109.50000 418.400000
4164 13892 8753 1 109.50000 418.400000
8752 13892 8753 1 109.50000 418.400000
5650 13893 8754 1 109.50000 418.400000
5650 13893 8755 1 109.50000 418.400000
5650 13893 8756 1 109.50000 418.400000
8754 13893 8755 1 109.50000 418.400000
8754 13893 8756 1 109.50000 418.400000
8755 13893 8756 1 109.50000 418.400000
2772 13894 6264 1 109.50000 418.400000
2772 13894 6709 1 109.50000 418.400000
2772 13894 6946 1 109.50000 418.400000
6264 13894 6709 1 109.50000 418.400000
6264 13894 6946 1 109.50000 418.400000
6709 13894 6946 1 109.50000 418.400000
4563 13895 5495 1 109.50000 418.400000
4563 13895 8752 1 109.50000 418.400000
4563 13895 8757 1 109.50000 418.400000
5495 13895 8752 1 109.50000 418.400000
5495 13895 8757 1 109.50000 418.400000
8752 13895 8757 1 109.50000 418.400000
1280 13896 2321 1 109.50000 418.400000
1280 13896 8758 1 109.50000 418.400000
1280 13896 8759 1 109.50000 418.400000
2321 13896 8758 1 109.50000 418.400000
2321 13896 8759 1 109.50000 418.400000
8758 13896 8759 1 109.50000 418.400000
1486 13897 3674 1 109.50000 418.400000
1486 13897 8031 1 109.50000 418.400000
1486 13897 8762 1 109.50000 418.400000
3674 13897 8031 1 109.50000 418.400000
3674 13897 8762 1 109.50000 418.400000
8031 13897 8762 1 109.50000 418.400000
1469 13898 7938 1 109.50000 418.400000
1469 13898 8545 1 109.50000 418.400000
1469 13898 8763 1 109.50000 418.400000
7938 13898 8545 1 109.50000 418.400000
7938 13898 8763 1 109.50000 418.400000
8545 13898 8763 1 109.50000 418.400000
7496 13899 8175 1 109.50000 418.400000
7496 13899 8764 1 109.50000 418.400000
7496 13899 8765 1 109.50000 418.400000
8175 13899 8764 1 109.50000 418.400000
8175 13899 8765 1 109.50000 418.400000
8764 13899 8765 1 109.50000 418.400000
6458 13900 6893 1 109.50000 418.400000
6458 13900 8766 1 109.50000 418.400000
6458 13900 8767 1 109.50000 418.400000
6893 13900 8766 1 109.50000 418.400000
6893 13900 8767 1 109.50000 418.400000
8766 13900 8767 1 109.50000 418.400000
4397 13901 4461 1 109.50000 418.400000
4397 13901 8768 1 109.50000 418.400000
4397 13901 8769 1 109.50000 418.400000
4461 13901 8768 1 109.50000 418.400000
4461 13901 8769 1 109.50000 418.400000
8768 13901 8769 1 109.50000 418.400000
6048 13902 6550 1 109.50000 418.400000
6048 13902 8770 1 109.50000 418.400000
6048 13902 8771 1 109.50000 418.400000
6550 13902 8770 1 109.50000 418.400000
6550 13902 8771 1 109.50000 418.400000
8770 13902 8771 1 109.50000 418.400000
318 13903 4157 1 109.50000 418.400000
318 13903 6701 1 109.50000 418.400000
318 13903 8747 1 109.50000 418.400000
4157 13903 6701 1 109.50000 418.400000
4157 13903 8747 1 109.50000 418.400000
6701 13903 8747 1 109.50000 418.400000
5284 13904 5492 1 109.50000 418.400000
5284 13904 8764 1 109.50000 418.400000
5284 13904 8772 1 109.50000 418.400000
5492 13904 8764 1 109.50000 418.400000
5492 13904 8772 1 109.50000 418.400000
8764 13904 8772 1 109.50000 418.400000
2187 13905 4069 1 109.50000 418.400000
2187 13905 8773 1 109.50000 418.400000
2187 13905 8774 1 109.50000 418.400000
4069 13905 8773 1 109.50000 418.400000
4069 13905 8774 1 109.50000 418.400000
8773 13905 8774 1 109.50000 418.400000
33 13906 1850 1 109.50000 418.400000
33 13906 8775 1 109.50000 418.400000
33 13906 8776 1 109.50000 418.400000
1850 13906 8775 1 109.50000 418.400000
1850 13906 8776 1 109.50000 418.400000
8775 13906 8776 1 109.50000 418.400000
1879 13907 7414 1 109.50000 418.400000
1879 13907 8778 1 109.50000 418.400000
1879 13907 8779 1 109.50000 418.400000
7414 13907 8778 1 109.50000 418.400000
7414 13907 8779 1 109.50000 418.400000
8778 13907 8779 1 109.50000 418.400000
2786 13908 8780 1 109.50000 418.400000
2786 13908 8781 1 109.50000 418.400000
2786 13908 8782 1 109.50000 418.400000
8780 13908 8781 1 109.50000 418.400000
8780 13908 8782 1 109.50000 418.400000
8781 13908 8782 1 109.50000 418.400000
429 13909 5607 1 109.50000 418.400000
429 13909 8783 1 109.50000 418.400000
429 13909 8784 1 109.50000 418.400000
5607 13909 8783 1 109.50000 418.400000
5607 13909 8784 1 109.50000 418.400000
8783 13909 8784 1 109.50000 418.400000
3006 13910 5305 1 109.50000 418.400000
3006 13910 6641 1 109.50000 418.400000
3006 13910 8785 1 109.50000 418.400000
5305 13910 6641 1 109.50000 418.400000
5305 13910 8785 1 109.50000 418.400000
6641 13910 8785 1 109.50000 418.400000
3067 13911 5005 1 109.50000 418.400000
3067 13911 8786 1 109.50000 418.400000
3067 13911 8787 1 109.50000 418.400000
5005 13911 8786 1 109.50000 418.400000
5005 13911 8787 1 109.50000 418.400000
8786 13911 8787 1 109.50000 418.400000
5212 13912 8674 1 109.50000 418.400000
5212 13912 8788 1 109.50000 418.400000
5212 13912 8789 1 109.50000 418.400000
8674 13912 8788 1 109.50000 418.400000
8674 13912 8789 1 109.50000 418.400000
8788 13912 8789 1 109.50000 418.400000
2763 13913 8790 1 109.50000 418.400000
2763 13913 8791 1 109.50000 418.400000
2763 13913 8792 1 109.50000 418.400000
8790 13913 8791 1 109.50000 418.400000
8790 13913 8792 1 109.50000 418.400000
8791 13913 8792 1 109.50000 418.400000
5631 13914 5674 1 109.50000 418.400000
5631 13914 6092 1 109.50000 418.400000
5631 13914 8795 1 109.50000 418.400000
5674 13914 6092 1 109.50000 418.400000
5674 13914 8795 1 109.50000 418.400000
6092 13914 8795 1 109.50000 418.400000
3610 13915 6521 1 109.50000 418.400000
3610 13915 8796 1 109.50000 418.400000
3610 13915 8797 1 109.50000 418.400000
6521 13915 8796 1 109.50000 418.400000
6521 13915 8797 1 109.50000 418.400000
8796 13915 8797 1 109.50000 418.400000
4932 13916 6306 1 109.50000 418.400000
4932 13916 8798 1 109.50000 418.400000
4932 13916 8799 1 109.50000 418.400000
6306 13916 8798 1 109.50000 418.400000
6306 13916 8799 1 109.50000 418.400000
8798 13916 8799 1 109.50000 418.400000
7555 13917 8800 1 109.50000 418.400000
7555 13917 8801 1 109.50000 418.400000
7555 13917 8802 1 109.50000 418.400000
8800 13917 8801 1 109.50000 418.400000
8800 13917 8802 1 109.50000 418.400000
8801 13917 8802 1 109.50000 418.400000
215 13918 6196 1 109.50000 418.400000
215 13918 8803 1 109.50000 418.400000
215 13918 8804 1 109.50000 418.400000
6196 13918 8803 1 109.50000 418.400000
6196 13918 8804 1 109.50000 418.400000
8803 13918 8804 1 109.50000 418.400000
1954 13919 8805 1 109.50000 418.400000
1954 13919 8806 1 109.50000 418.400000
1954 13919 8807 1 109.50000 418.400000
8805 13919 8806 1 109.50000 418.400000
8805 13919 8807 1 109.50000 418.400000
8806 13919 8807 1 109.50000 418.400000
5615 13920 5670 1 109.50000 418.400000
5615 13920 5821 1 109.50000 418.400000
5615 13920 8808 1 109.50000 418.400000
5670 13920 5821 1 109.50000 418.400000
5670 13920 8808 1 109.50000 418.400000
5821 13920 8808 1 109.50000 418.400000
8804 13921 8809 1 109.50000 418.400000
8804 13921 8810 1 109.50000 418.400000
8804 13921 8811 1 109.50000 418.400000
8809 13921 8810 1 109.50000 418.400000
8809 13921 8811 1 109.50000 418.400000
8810 13921 8811 1 109.50000 418.400000
5206 13922 5207 1 109.50000 418.400000
5206 13922 6503 1 109.50000 418.400000
5206 13922 8812 1 109.50000 418.400000
5207 13922 6503 1 109.50000 418.400000
5207 13922 8812 1 109.50000 418.400000
6503 13922 8812 1 109.50000 418.400000
3838 13923 4964 1 109.50000 418.400000
3838 13923 6719 1 109.50000 418.400000
3838 13923 8814 1 109.50000 418.400000
4964 13923 6719 1 109.50000 418.400000
4964 13923 8814 1 109.50000 418.400000
6719 13923 8814 1 109.50000 418.400000
4899 13924 4900 1 109.50000 418.400000
4899 13924 7224 1 109.50000 418.400000
4899 13924 8816 1 109.50000 418.400000
4900 13924 7224 1 109.50000 418.400000
4900 13924 8816 1 109.50000 418.400000
7224 13924 8816 1 109.50000 418.400000
5338 13925 6780 1 109.50000 418.400000
5338 13925 6781 1 109.50000 418.400000
5338 13925 8817 1 109.50000 418.400000
6780 13925 6781 1 109.50000 418.400000
6780 13925 8817 1 109.50000 418.400000
6781 13925 8817 1 109.50000 418.400000
7548 13926 8818 1 109.50000 418.400000
7548 13926 8819 1 109.50000 418.400000
7548 13926 9922 1 109.50000 418.400000
8818 13926 8819 1 109.50000 418.400000
8818 13926 9922 1 109.50000 418.400000
8819 13926 9922 1 109.50000 418.400000
4684 13927 5275 1 109.50000 418.400000
4684 13927 7412 1 109.50000 418.400000
4684 13927 8820 1 109.50000 418.400000
5275 13927 7412 1 109.50000 418.400000
5275 13927 8820 1 109.50000 418.400000
7412 13927 8820 1 109.50000 418.400000
7450 13928 8823 1 109.50000 418.400000
7450 13928 8824 1 109.50000 418.400000
7450 13928 11006 1 109.50000 418.400000
8823 13928 8824 1 109.50000 418.400000
8823 13928 11006 1 109.50000 418.400000
8824 13928 11006 1 109.50000 418.400000
5315 13929 5813 1 109.50000 418.400000
5315 13929 8307 1 109.50000 418.400000
5315 13929 8825 1 109.50000 418.400000
5813 13929 8307 1 109.50000 418.400000
5813 13929 8825 1 109.50000 418.400000
8307 13929 8825 1 109.50000 418.400000
3210 13930 7543 1 109.50000 418.400000
3210 13930 8666 1 109.50000 418.400000
3210 13930 8667 1 109.50000 418.400000
7543 13930 8666 1 109.50000 418.400000
7543 13930 8667 1 109.50000 418.400000
8666 13930 8667 1 109.50000 418.400000
325 13931 4040 1 109.50000 418.400000
325 13931 6439 1 109.50000 418.400000
325 13931 8642 1 109.50000 418.400000
4040 13931 6439 1 109.50000 418.400000
4040 13931 8642 1 109.50000 418.400000
6439 13931 8642 1 109.50000 418.400000
47 13932 217 1 109.50000 418.400000
47 13932 7159 1 109.50000 418.400000
47 13932 7470 1 109.50000 418.400000
217 13932 7159 1 109.50000 418.400000
217 13932 7470 1 109.50000 418.400000
7159 13932 7470 1 109.50000 418.400000
3461 13933 8827 1 109.50000 418.400000
3461 13933 8828 1 109.50000 418.400000
3461 13933 8829 1 109.50000 418.400000
8827 13933 8828 1 109.50000 418.400000
8827 13933 8829 1 109.50000 418.400000
8828 13933 8829 1 109.50000 418.400000
1007 13934 6259 1 109.50000 418.400000
1007 13934 6357 1 109.50000 418.400000
1007 13934 8830 1 109.50000 418.400000
6259 13934 6357 1 109.50000 418.400000
6259 13934 8830 1 109.50000 418.400000
6357 13934 8830 1 109.50000 418.400000
8831 13935 8832 1 109.50000 418.400000
8831 13935 8833 1 109.50000 418.400000
8831 13935 8834 1 109.50000 418.400000
8832 13935 8833 1 109.50000 418.400000
8832 13935 8834 1 109.50000 418.400000
8833 13935 8834 1 109.50000 418.400000
3020 13936 5070 1 109.50000 418.400000
3020 13936 5323 1 109.50000 418.400000
3020 13936 8835 1 109.50000 418.400000
5070 13936 5323 1 109.50000 418.400000
5070 13936 8835 1 109.50000 418.400000
5323 13936 8835 1 109.50000 418.400000
1606 13937 3257 1 109.50000 418.400000
1606 13937 4614 1 109.50000 418.400000
1606 13937 8836 1 109.50000 418.400000
3257 13937 4614 1 109.50000 418.400000
3257 13937 8836 1 109.50000 418.400000
4614 13937 8836 1 109.50000 418.400000
1094 13938 4980 1 109.50000 418.400000
1094 13938 5957 1 109.50000 418.400000
1094 13938 8837 1 109.50000 418.400000
4980 13938 5957 1 109.50000 418.400000
4980 13938 8837 1 109.50000 418.400000
5957 13938 8837 1 109.50000 418.400000
1254 13939 8838 1 109.50000 418.400000
1254 13939 8839 1 109.50000 418.400000
1254 13939 8840 1 109.50000 418.400000
8838 13939 8839 1 109.50000 418.400000
8838 13939 8840 1 109.50000 418.400000
8839 13939 8840 1 109.50000 418.400000
6131 13940 6636 1 109.50000 418.400000
6131 13940 8841 1 109.50000 418.400000
6131 13940 8842 1 109.50000 418.400000
6636 13940 8841 1 109.50000 418.400000
6636 13940 8842 1 109.50000 418.400000
8841 13940 8842 1 109.50000 418.400000
7892 13941 8094 1 109.50000 418.400000
7892 13941 8843 1 109.50000 418.400000
7892 13941 8844 1 109.50000 418.400000
8094 13941 8843 1 109.50000 418.400000
8094 13941 8844 1 109.50000 418.400000
8843 13941 8844 1 109.50000 418.400000
1482 13942 4548 1 109.50000 418.400000
1482 13942 8845 1 109.50000 418.400000
1482 13942 8846 1 109.50000 418.400000
4548 13942 8845 1 109.50000 418.400000
4548 13942 8846 1 109.50000 418.400000
8845 13942 8846 1 109.50000 418.400000
5208 13943 6167 1 109.50000 418.400000
5208 13943 6170 1 109.50000 418.400000
5208 13943 8847 1 109.50000 418.400000
6167 13943 6170 1 109.50000 418.400000
6167 13943 8847 1 109.50000 418.400000
6170 13943 8847 1 109.50000 418.400000
3756 13944 4192 1 109.50000 418.400000
3756 13944 5933 1 109.50000 418.400000
3756 13944 8849 1 109.50000 418.400000
4192 13944 5933 1 109.50000 418.400000
4192 13944 8849 1 109.50000 418.400000
5933 13944 8849 1 109.50000 418.400000
1768 13945 4525 1 109.50000 418.400000
1768 13945 5084 1 109.50000 418.400000
1768 13945 8850 1 109.50000 418.400000
4525 13945 5084 1 109.50000 418.400000
4525 13945 8850 1 109.50000 418.400000
5084 13945 8850 1 109.50000 418.400000
397 13946 8852 1 109.50000 418.400000
397 13946 8853 1 109.50000 418.400000
397 13946 8854 1 109.50000 418.400000
8852 13946 8853 1 109.50000 418.400000
8852 13946 8854 1 109.50000 418.400000
8853 13946 8854 1 109.50000 418.400000
4347 13947 5629 1 109.50000 418.400000
4347 13947 8856 1 109.50000 418.400000
4347 13947 8857 1 109.50000 418.400000
5629 13947 8856 1 109.50000 418.400000
5629 13947 8857 1 109.50000 418.400000
8856 13947 8857 1 109.50000 418.400000
2873 13948 8858 1 109.50000 418.400000
2873 13948 8859 1 109.50000 418.400000
2873 13948 8860 1 109.50000 418.400000
8858 13948 8859 1 109.50000 418.400000
8858 13948 8860 1 109.50000 418.400000
8859 13948 8860 1 109.50000 418.400000
252 13949 8861 1 109.50000 418.400000
252 13949 8862 1 109.50000 418.400000
252 13949 8863 1 109.50000 418.400000
8861 13949 8862 1 109.50000 418.400000
8861 13949 8863 1 109.50000 418.400000
8862 13949 8863 1 109.50000 418.400000
3112 13950 5160 1 109.50000 418.400000
3112 13950 6426 1 109.50000 418.400000
3112 13950 8868 1 109.50000 418.400000
5160 13950 6426 1 109.50000 418.400000
5160 13950 8868 1 109.50000 418.400000
6426 13950 8868 1 109.50000 418.400000
5491 13951 7325 1 109.50000 418.400000
5491 13951 8870 1 109.50000 418.400000
5491 13951 8871 1 109.50000 418.400000
7325 13951 8870 1 109.50000 418.400000
7325 13951 8871 1 109.50000 418.400000
8870 13951 8871 1 109.50000 418.400000
199 13952 3306 1 109.50000 418.400000
199 13952 6686 1 109.50000 418.400000
199 13952 7402 1 109.50000 418.400000
3306 13952 6686 1 109.50000 418.400000
3306 13952 7402 1 109.50000 418.400000
6686 13952 7402 1 109.50000 418.400000
3392 13953 3781 1 109.50000 418.400000
3392 13953 5083 1 109.50000 418.400000
3392 13953 8872 1 109.50000 418.400000
3781 13953 5083 1 109.50000 418.400000
3781 13953 8872 1 109.50000 418.400000
5083 13953 8872 1 109.50000 418.400000
830 13954 1868 1 109.50000 418.400000
830 13954 3991 1 109.50000 418.400000
830 13954 8880 1 109.50000 418.400000
1868 13954 3991 1 109.50000 418.400000
1868 13954 8880 1 109.50000 418.400000
3991 13954 8880 1 109.50000 418.400000
1096 13955 1610 1 109.50000 418.400000
1096 13955 8881 1 109.50000 418.400000
1096 13955 8882 1 109.50000 418.400000
1610 13955 8881 1 109.50000 418.400000
1610 13955 8882 1 109.50000 418.400000
8881 13955 8882 1 109.50000 418.400000
3251 13956 5609 1 109.50000 418.400000
3251 13956 6254 1 109.50000 418.400000
3251 13956 8883 1 109.50000 418.400000
5609 13956 6254 1 109.50000 418.400000
5609 13956 8883 1 109.50000 418.400000
6254 13956 8883 1 109.50000 418.400000
3646 13957 5053 1 109.50000 418.400000
3646 13957 8884 1 109.50000 418.400000
3646 13957 8885 1 109.50000 418.400000
5053 13957 8884 1 109.50000 418.400000
5053 13957 8885 1 109.50000 418.400000
8884 13957 8885 1 109.50000 418.400000
2807 13958 3049 1 109.50000 418.400000
2807 13958 8886 1 109.50000 418.400000
2807 13958 8887 1 109.50000 418.400000
3049 13958 8886 1 109.50000 418.400000
3049 13958 8887 1 109.50000 418.400000
8886 13958 8887 1 109.50000 418.400000
3506 13959 3966 1 109.50000 418.400000
3506 13959 4918 1 109.50000 418.400000
3506 13959 7059 1 109.50000 418.400000
3966 13959 4918 1 109.50000 418.400000
3966 13959 7059 1 109.50000 418.400000
4918 13959 7059 1 109.50000 418.400000
2534 13960 8888 1 109.50000 418.400000
2534 13960 8889 1 109.50000 418.400000
2534 13960 8890 1 109.50000 418.400000
8888 13960 8889 1 109.50000 418.400000
8888 13960 8890 1 109.50000 418.400000
8889 13960 8890 1 109.50000 418.400000
5154 13961 7487 1 109.50000 418.400000
5154 13961 8891 1 109.50000 418.400000
5154 13961 8892 1 109.50000 418.400000
7487 13961 8891 1 109.50000 418.400000
7487 13961 8892 1 109.50000 418.400000
8891 13961 8892 1 109.50000 418.400000
3723 13962 7214 1 109.50000 418.400000
3723 13962 7216 1 109.50000 418.400000
3723 13962 8893 1 109.50000 418.400000
7214 13962 7216 1 109.50000 418.400000
7214 13962 8893 1 109.50000 418.400000
7216 13962 8893 1 109.50000 418.400000
2693 13963 5978 1 109.50000 418.400000
2693 13963 6190 1 109.50000 418.400000
2693 13963 8895 1 109.50000 418.400000
5978 13963 6190 1 109.50000 418.400000
5978 13963 8895 1 109.50000 418.400000
6190 13963 8895 1 109.50000 418.400000
8075 13964 8896 1 109.50000 418.400000
8075 13964 8897 1 109.50000 418.400000
8075 13964 8898 1 109.50000 418.400000
8896 13964 8897 1 109.50000 418.400000
8896 13964 8898 1 109.50000 418.400000
8897 13964 8898 1 109.50000 418.400000
1817 13965 5732 1 109.50000 418.400000
1817 13965 8631 1 109.50000 418.400000
1817 13965 8899 1 109.50000 418.400000
5732 13965 8631 1 109.50000 418.400000
5732 13965 8899 1 109.50000 418.400000
8631 13965 8899 1 109.50000 418.400000
4960 13966 7053 1 109.50000 418.400000
4960 13966 8900 1 109.50000 418.400000
4960 13966 8901 1 109.50000 418.400000
7053 13966 8900 1 109.50000 418.400000
7053 13966 8901 1 109.50000 418.400000
8900 13966 8901 1 109.50000 418.400000
2360 13967 7922 1 109.50000 418.400000
2360 13967 8902 1 109.50000 418.400000
2360 13967 8903 1 109.50000 418.400000
7922 13967 8902 1 109.50000 418.400000
7922 13967 8903 1 109.50000 418.400000
8902 13967 8903 1 109.50000 418.400000
7653 13968 8904 1 109.50000 418.400000
7653 13968 8905 1 109.50000 418.400000
7653 13968 8906 1 109.50000 418.400000
8904 13968 8905 1 109.50000 418.400000
8904 13968 8906 1 109.50000 418.400000
8905 13968 8906 1 109.50000 418.400000
1753 13969 1759 1 109.50000 418.400000
1753 13969 7369 1 109.50000 418.400000
1753 13969 8907 1 109.50000 418.400000
1759 13969 7369 1 109.50000 418.400000
1759 13969 8907 1 109.50000 418.400000
7369 13969 8907 1 109.50000 418.400000
4256 13970 5014 1 109.50000 418.400000
4256 13970 5746 1 109.50000 418.400000
4256 13970 8285 1 109.50000 418.400000
5014 13970 5746 1 109.50000 418.400000
5014 13970 8285 1 109.50000 418.400000
5746 13970 8285 1 109.50000 418.400000
1339 13971 3998 1 109.50000 418.400000
1339 13971 8909 1 109.50000 418.400000
1339 13971 8910 1 109.50000 418.400000
3998 13971 8909 1 109.50000 418.400000
3998 13971 8910 1 109.50000 418.400000
8909 13971 8910 1 109.50000 418.400000
7576 13972 8334 1 109.50000 418.400000
7576 13972 8911 1 109.50000 418.400000
7576 13972 8912 1 109.50000 418.400000
8334 13972 8911 1 109.50000 418.400000
8334 13972 8912 1 109.50000 418.400000
8911 13972 8912 1 109.50000 418.400000
5971 13973 8755 1 109.50000 418.400000
5971 13973 8914 1 109.50000 418.400000
5971 13973 8915 1 109.50000 418.400000
8755 13973 8914 1 109.50000 418.400000
8755 13973 8915 1 109.50000 418.400000
8914 13973 8915 1 109.50000 418.400000
304 13974 3553 1 109.50000 418.400000
304 13974 5890 1 109.50000 418.400000
304 13974 8917 1 109.50000 418.400000
3553 13974 5890 1 109.50000 418.400000
3553 13974 8917 1 109.50000 418.400000
5890 13974 8917 1 109.50000 418.400000
4123 13975 8918 1 109.50000 418.400000
4123 13975 8919 1 109.50000 418.400000
4123 13975 8920 1 109.50000 418.400000
8918 13975 8919 1 109.50000 418.400000
8918 13975 8920 1 109.50000 418.400000
8919 13975 8920 1 109.50000 418.400000
4568 13976 6156 1 109.50000 418.400000
4568 13976 8921 1 109.50000 418.400000
4568 13976 8922 1 109.50000 418.400000
6156 13976 8921 1 109.50000 418.400000
6156 13976 8922 1 109.50000 418.400000
8921 13976 8922 1 109.50000 418.400000
6205 13977 8924 1 109.50000 418.400000
6205 13977 8925 1 109.50000 418.400000
6205 13977 8926 1 109.50000 418.400000
8924 13977 8925 1 109.50000 418.400000
8924 13977 8926 1 109.50000 418.400000
8925 13977 8926 1 109.50000 418.400000
788 13978 3608 1 109.50000 418.400000
788 13978 4974 1 109.50000 418.400000
788 13978 8929 1 109.50000 418.400000
3608 13978 4974 1 109.50000 418.400000
3608 13978 8929 1 109.50000 418.400000
4974 13978 8929 1 109.50000 418.400000
8930 13979 8931 1 109.50000 418.400000
8930 13979 8932 1 109.50000 418.400000
8930 13979 8933 1 109.50000 418.400000
8931 13979 8932 1 109.50000 418.400000
8931 13979 8933 1 109.50000 418.400000
8932 13979 8933 1 109.50000 418.400000
1253 13980 6609 1 109.50000 418.400000
1253 13980 8934 1 109.50000 418.400000
1253 13980 8935 1 109.50000 418.400000
6609 13980 8934 1 109.50000 418.400000
6609 13980 8935 1 109.50000 418.400000
8934 13980 8935 1 109.50000 418.400000
1164 13981 5514 1 109.50000 418.400000
1164 13981 7958 1 109.50000 418.400000
1164 13981 8936 1 109.50000 418.400000
5514 13981 7958 1 109.50000 418.400000
5514 13981 8936 1 109.50000 418.400000
7958 13981 8936 1 109.50000 418.400000
3476 13982 5828 1 109.50000 418.400000
3476 13982 8937 1 109.50000 418.400000
3476 13982 8938 1 109.50000 418.400000
5828 13982 8937 1 109.50000 418.400000
5828 13982 8938 1 109.50000 418.400000
8937 13982 8938 1 109.50000 418.400000
2579 13983 7057 1 109.50000 418.400000
2579 13983 7903 1 109.50000 418.400000
2579 13983 8939 1 109.50000 418.400000
7057 13983 7903 1 109.50000 418.400000
7057 13983 8939 1 109.50000 418.400000
7903 13983 8939 1 109.50000 418.400000
2705 13984 7558 1 109.50000 418.400000
2705 13984 7584 1 109.50000 418.400000
2705 13984 8940 1 109.50000 418.400000
7558 13984 7584 1 109.50000 418.400000
7558 13984 8940 1 109.50000 418.400000
7584 13984 8940 1 109.50000 418.400000
2954 13985 5970 1 109.50000 418.400000
2954 13985 5973 1 109.50000 418.400000
2954 13985 8941 1 109.50000 418.400000
5970 13985 5973 1 109.50000 418.400000
5970 13985 8941 1 109.50000 418.400000
5973 13985 8941 1 109.50000 418.400000
8943 13986 8944 1 109.50000 418.400000
8943 13986 8945 1 109.50000 418.400000
8943 13986 8946 1 109.50000 418.400000
8944 13986 8945 1 109.50000 418.400000
8944 13986 8946 1 109.50000 418.400000
8945 13986 8946 1 109.50000 418.400000
1695 13987 2785 1 109.50000 418.400000
1695 13987 8947 1 109.50000 418.400000
1695 13987 8948 1 109.50000 418.400000
2785 13987 8947 1 109.50000 418.400000
2785 13987 8948 1 109.50000 418.400000
8947 13987 8948 1 109.50000 418.400000
8949 13988 8950 1 109.50000 418.400000
8949 13988 8951 1 109.50000 418.400000
8949 13988 8952 1 109.50000 418.400000
8950 13988 8951 1 109.50000 418.400000
8950 13988 8952 1 109.50000 418.400000
8951 13988 8952 1 109.50000 418.400000
1740 13989 2379 1 109.50000 418.400000
1740 13989 4546 1 109.50000 418.400000
1740 13989 8953 1 109.50000 418.400000
2379 13989 4546 1 109.50000 418.400000
2379 13989 8953 1 109.50000 418.400000
4546 13989 8953 1 109.50000 418.400000
2876 13990 8954 1 109.50000 418.400000
2876 13990 8955 1 109.50000 418.400000
2876 13990 8956 1 109.50000 418.400000
8954 13990 8955 1 109.50000 418.400000
8954 13990 8956 1 109.50000 418.400000
8955 13990 8956 1 109.50000 418.400000
7989 13991 8957 1 109.50000 418.400000
7989 13991 8958 1 109.50000 418.400000
7989 13991 8959 1 109.50000 418.400000
8957 13991 8958 1 109.50000 418.400000
8957 13991 8959 1 109.50000 418.400000
8958 13991 8959 1 109.50000 418.400000
2650 13992 5326 1 109.50000 418.400000
2650 13992 5363 1 109.50000 418.400000
2650 13992 5382 1 109.50000 418.400000
5326 13992 5363 1 109.50000 418.400000
5326 13992 5382 1 109.50000 418.400000
5363 13992 5382 1 109.50000 418.400000
424 13993 638 1 109.50000 418.400000
424 13993 5150 1 109.50000 418.400000
424 13993 8960 1 109.50000 418.400000
638 13993 5150 1 109.50000 418.400000
638 13993 8960 1 109.50000 418.400000
5150 13993 8960 1 109.50000 418.400000
1465 13994 5851 1 109.50000 418.400000
1465 13994 8248 1 109.50000 418.400000
1465 13994 8963 1 109.50000 418.400000
5851 13994 8248 1 109.50000 418.400000
5851 13994 8963 1 109.50000 418.400000
8248 13994 8963 1 109.50000 418.400000
8129 13995 8964 1 109.50000 418.400000
8129 13995 8965 1 109.50000 418.400000
8129 13995 8966 1 109.50000 418.400000
8964 13995 8965 1 109.50000 418.400000
8964 13995 8966 1 109.50000 418.400000
8965 13995 8966 1 109.50000 418.400000
1729 13996 3174 1 109.50000 418.400000
1729 13996 8960 1 109.50000 418.400000
1729 13996 8967 1 109.50000 418.400000
3174 13996 8960 1 109.50000 418.400000
3174 13996 8967 1 109.50000 418.400000
8960 13996 8967 1 109.50000 418.400000
7224 13997 7225 1 109.50000 418.400000
7224 13997 8968 1 109.50000 418.400000
7224 13997 8969 1 109.50000 418.400000
7225 13997 8968 1 109.50000 418.400000
7225 13997 8969 1 109.50000 418.400000
8968 13997 8969 1 109.50000 418.400000
1518 13998 3058 1 109.50000 418.400000
1518 13998 4201 1 109.50000 418.400000
1518 13998 7266 1 109.50000 418.400000
3058 13998 4201 1 109.50000 418.400000
3058 13998 7266 1 109.50000 418.400000
4201 13998 7266 1 109.50000 418.400000
4732 13999 8971 1 109.50000 418.400000
4732 13999 8972 1 109.50000 418.400000
4732 13999 8973 1 109.50000 418.400000
8971 13999 8972 1 109.50000 418.400000
8971 13999 8973 1 109.50000 418.400000
8972 13999 8973 1 109.50000 418.400000
2800 14000 2802 1 109.50000 418.400000
2800 14000 8977 1 109.50000 418.400000
2800 14000 8978 1 109.50000 418.400000
2802 14000 8977 1 109.50000 418.400000
2802 14000 8978 1 109.50000 418.400000
8977 14000 8978 1 109.50000 418.400000
8385 14001 8979 1 109.50000 418.400000
8385 14001 8980 1 109.50000 418.400000
8385 14001 8981 1 109.50000 418.400000
8979 14001 8980 1 109.50000 418.400000
8979 14001 8981 1 109.50000 418.400000
8980 14001 8981 1 109.50000 418.400000
5624 14002 5936 1 109.50000 418.400000
5624 14002 8982 1 109.50000 418.400000
5624 14002 8983 1 109.50000 418.400000
5936 14002 8982 1 109.50000 418.400000
5936 14002 8983 1 109.50000 418.400000
8982 14002 8983 1 109.50000 418.400000
2666 14003 5800 1 109.50000 418.400000
2666 14003 8984 1 109.50000 418.400000
2666 14003 8985 1 109.50000 418.400000
5800 14003 8984 1 109.50000 418.400000
5800 14003 8985 1 109.50000 418.400000
8984 14003 8985 1 109.50000 418.400000
1200 14004 1304 1 109.50000 418.400000
1200 14004 1305 1 109.50000 418.400000
1200 14004 3190 1 109.50000 418.400000
1304 14004 1305 1 109.50000 418.400000
1304 14004 3190 1 109.50000 418.400000
1305 14004 3190 1 109.50000 418.400000
8016 14005 8987 1 109.50000 418.400000
8016 14005 8988 1 109.50000 418.400000
8016 14005 8989 1 109.50000 418.400000
8987 14005 8988 1 109.50000 418.400000
8987 14005 8989 1 109.50000 418.400000
8988 14005 8989 1 109.50000 418.400000
5863 14006 6075 1 109.50000 418.400000
5863 14006 7049 1 109.50000 418.400000
5863 14006 7504 1 109.50000 418.400000
6075 14006 7049 1 109.50000 418.400000
6075 14006 7504 1 109.50000 418.400000
7049 14006 7504 1 109.50000 418.400000
849 14007 4266 1 109.50000 418.400000
849 14007 8991 1 109.50000 418.400000
849 14007 8992 1 109.50000 418.400000
4266 14007 8991 1 109.50000 418.400000
4266 14007 8992 1 109.50000 418.400000
8991 14007 8992 1 109.50000 418.400000
702 14008 8527 1 109.50000 418.400000
702 14008 8993 1 109.50000 418.400000
702 14008 8994 1 109.50000 418.400000
8527 14008 8993 1 109.50000 418.400000
8527 14008 8994 1 109.50000 418.400000
8993 14008 8994 1 109.50000 418.400000
1098 14009 6160 1 109.50000 418.400000
1098 14009 8549 1 109.50000 418.400000
1098 14009 8995 1 109.50000 418.400000
6160 14009 8549 1 109.50000 418.400000
6160 14009 8995 1 109.50000 418.400000
8549 14009 8995 1 109.50000 418.400000
6256 14010 6258 1 109.50000 418.400000
6256 14010 6884 1 109.50000 418.400000
6256 14010 8271 1 109.50000 418.400000
6258 14010 6884 1 109.50000 418.400000
6258 14010 8271 1 109.50000 418.400000
6884 14010 8271 1 109.50000 418.400000
6973 14011 7356 1 109.50000 418.400000
6973 14011 8996 1 109.50000 418.400000
6973 14011 8997 1 109.50000 418.400000
7356 14011 8996 1 109.50000 418.400000
7356 14011 8997 1 109.50000 418.400000
8996 14011 8997 1 109.50000 418.400000
6074 14012 7503 1 109.50000 418.400000
6074 14012 8282 1 109.50000 418.400000
6074 14012 8283 1 109.50000 418.400000
7503 14012 8282 1 109.50000 418.400000
7503 14012 8283 1 109.50000 418.400000
8282 14012 8283 1 109.50000 418.400000
5926 14013 8196 1 109.50000 418.400000
5926 14013 8999 1 109.50000 418.400000
5926 14013 9000 1 109.50000 418.400000
8196 14013 8999 1 109.50000 418.400000
8196 14013 9000 1 109.50000 418.400000
8999 14013 9000 1 109.50000 418.400000
5555 14014 9002 1 109.50000 418.400000
5555 14014 9003 1 109.50000 418.400000
5555 14014 9004 1 109.50000 418.400000
9002 14014 9003 1 109.50000 418.400000
9002 14014 9004 1 109.50000 418.400000
9003 14014 9004 1 109.50000 418.400000
1347 14015 9006 1 109.50000 418.400000
1347 14015 9007 1 109.50000 418.400000
1347 14015 9008 1 109.50000 418.400000
9006 14015 9007 1 109.50000 418.400000
9006 14015 9008 1 109.50000 418.400000
9007 14015 9008 1 109.50000 418.400000
2132 14016 6633 1 109.50000 418.400000
2132 14016 8827 1 109.50000 418.400000
2132 14016 9009 1 109.50000 418.400000
6633 14016 8827 1 109.50000 418.400000
6633 14016 9009 1 109.50000 418.400000
8827 14016 9009 1 109.50000 418.400000
4356 14017 6106 1 109.50000 418.400000
4356 14017 9013 1 109.50000 418.400000
4356 14017 9014 1 109.50000 418.400000
6106 14017 9013 1 109.50000 418.400000
6106 14017 9014 1 109.50000 418.400000
9013 14017 9014 1 109.50000 418.400000
8252 14018 9015 1 109.50000 418.400000
8252 14018 9017 1 109.50000 418.400000
8252 14018 10315 1 109.50000 418.400000
9015 14018 9017 1 109.50000 418.400000
9015 14018 10315 1 109.50000 418.400000
9017 14018 10315 1 109.50000 418.400000
549 14019 3741 1 109.50000 418.400000
549 14019 7803 1 109.50000 418.400000
549 14019 9018 1 109.50000 418.400000
3741 14019 7803 1 109.50000 418.400000
3741 14019 9018 1 109.50000 418.400000
7803 14019 9018 1 109.50000 418.400000
2438 14020 3891 1 109.50000 418.400000
2438 14020 6184 1 109.50000 418.400000
2438 14020 9019 1 109.50000 418.400000
3891 14020 6184 1 109.50000 418.400000
3891 14020 9019 1 109.50000 418.400000
6184 14020 9019 1 109.50000 418.400000
3902 14021 4470 1 109.50000 418.400000
3902 14021 9020 1 109.50000 418.400000
3902 14021 9021 1 109.50000 418.400000
4470 14021 9020 1 109.50000 418.400000
4470 14021 9021 1 109.50000 418.400000
9020 14021 9021 1 109.50000 418.400000
5559 14022 8071 1 109.50000 418.400000
5559 14022 9022 1 109.50000 418.400000
5559 14022 9023 1 109.50000 418.400000
8071 14022 9022 1 109.50000 418.400000
8071 14022 9023 1 109.50000 418.400000
9022 14022 9023 1 109.50000 418.400000
7936 14023 9026 1 109.50000 418.400000
7936 14023 9027 1 109.50000 418.400000
7936 14023 9028 1 109.50000 418.400000
9026 14023 9027 1 109.50000 418.400000
9026 14023 9028 1 109.50000 418.400000
9027 14023 9028 1 109.50000 418.400000
7045 14024 8941 1 109.50000 418.400000
7045 14024 9029 1 109.50000 418.400000
7045 14024 9030 1 109.50000 418.400000
8941 14024 9029 1 109.50000 418.400000
8941 14024 9030 1 109.50000 418.400000
9029 14024 9030 1 109.50000 418.400000
3544 14025 9031 1 109.50000 418.400000
3544 14025 9032 1 109.50000 418.400000
3544 14025 9033 1 109.50000 418.400000
9031 14025 9032 1 109.50000 418.400000
9031 14025 9033 1 109.50000 418.400000
9032 14025 9033 1 109.50000 418.400000
1328 14026 4875 1 109.50000 418.400000
1328 14026 6236 1 109.50000 418.400000
1328 14026 9034 1 109.50000 418.400000
4875 14026 6236 1 109.50000 418.400000
4875 14026 9034 1 109.50000 418.400000
6236 14026 9034 1 109.50000 418.400000
4535 14027 5828 1 109.50000 418.400000
4535 14027 5829 1 109.50000 418.400000
4535 14027 6960 1 109.50000 418.400000
5828 14027 5829 1 109.50000 418.400000
5828 14027 6960 1 109.50000 418.400000
5829 14027 6960 1 109.50000 418.400000
1466 14028 3017 1 109.50000 418.400000
1466 14028 9036 1 109.50000 418.400000
1466 14028 9037 1 109.50000 418.400000
3017 14028 9036 1 109.50000 418.400000
3017 14028 9037 1 109.50000 418.400000
9036 14028 9037 1 109.50000 418.400000
2703 14029 4770 1 109.50000 418.400000
2703 14029 9038 1 109.50000 418.400000
2703 14029 9039 1 109.50000 418.400000
4770 14029 9038 1 109.50000 418.400000
4770 14029 9039 1 109.50000 418.400000
9038 14029 9039 1 109.50000 418.400000
6485 14030 9040 1 109.50000 418.400000
6485 14030 9042 1 109.50000 418.400000
6485 14030 9043 1 109.50000 418.400000
9040 14030 9042 1 109.50000 418.400000
9040 14030 9043 1 109.50000 418.400000
9042 14030 9043 1 109.50000 418.400000
2351 14031 3317 1 109.50000 418.400000
2351 14031 5078 1 109.50000 418.400000
2351 14031 9044 1 109.50000 418.400000
3317 14031 5078 1 109.50000 418.400000
3317 14031 9044 1 109.50000 418.400000
5078 14031 9044 1 109.50000 418.400000
117 14032 6388 1 109.50000 418.400000
117 14032 8806 1 109.50000 418.400000
117 14032 9045 1 109.50000 418.400000
6388 14032 8806 1 109.50000 418.400000
6388 14032 9045 1 109.50000 418.400000
8806 14032 9045 1 109.50000 418.400000
7928 14033 8360 1 109.50000 418.400000
7928 14033 9046 1 109.50000 418.400000
7928 14033 9047 1 109.50000 418.400000
8360 14033 9046 1 109.50000 418.400000
8360 14033 9047 1 109.50000 418.400000
9046 14033 9047 1 109.50000 418.400000
2288 14034 5838 1 109.50000 418.400000
2288 14034 9049 1 109.50000 418.400000
2288 14034 9050 1 109.50000 418.400000
5838 14034 9049 1 109.50000 418.400000
5838 14034 9050 1 109.50000 418.400000
9049 14034 9050 1 109.50000 418.400000
6365 14035 8381 1 109.50000 418.400000
6365 14035 9051 1 109.50000 418.400000
6365 14035 9052 1 109.50000 418.400000
8381 14035 9051 1 109.50000 418.400000
8381 14035 9052 1 109.50000 418.400000
9051 14035 9052 1 109.50000 418.400000
2811 14036 5037 1 109.50000 418.400000
2811 14036 7070 1 109.50000 418.400000
2811 14036 9053 1 109.50000 418.400000
5037 14036 7070 1 109.50000 418.400000
5037 14036 9053 1 109.50000 418.400000
7070 14036 9053 1 109.50000 418.400000
722 14037 724 1 109.50000 418.400000
722 14037 2383 1 109.50000 418.400000
722 14037 4214 1 109.50000 418.400000
724 14037 2383 1 109.50000 418.400000
724 14037 4214 1 109.50000 418.400000
2383 14037 4214 1 109.50000 418.400000
5602 14038 7375 1 109.50000 418.400000
5602 14038 8530 1 109.50000 418.400000
5602 14038 9056 1 109.50000 418.400000
7375 14038 8530 1 109.50000 418.400000
7375 14038 9056 1 109.50000 418.400000
8530 14038 9056 1 109.50000 418.400000
6793 14039 9057 1 109.50000 418.400000
6793 14039 9058 1 109.50000 418.400000
6793 14039 9059 1 109.50000 418.400000
9057 14039 9058 1 109.50000 418.400000
9057 14039 9059 1 109.50000 418.400000
9058 14039 9059 1 109.50000 418.400000
7061 14040 7063 1 109.50000 418.400000
7061 14040 8913 1 109.50000 418.400000
7061 14040 9060 1 109.50000 418.400000
7063 14040 8913 1 109.50000 418.400000
7063 14040 9060 1 109.50000 418.400000
8913 14040 9060 1 109.50000 418.400000
6875 14041 9062 1 109.50000 418.400000
6875 14041 9063 1 109.50000 418.400000
6875 14041 9064 1 109.50000 418.400000
9062 14041 9063 1 109.50000 418.400000
9062 14041 9064 1 109.50000 418.400000
9063 14041 9064 1 109.50000 418.400000
1177 14042 2276 1 109.50000 418.400000
1177 14042 6421 1 109.50000 418.400000
1177 14042 9065 1 109.50000 418.400000
2276 14042 6421 1 109.50000 418.400000
2276 14042 9065 1 109.50000 418.400000
6421 14042 9065 1 109.50000 418.400000
1182 14043 2335 1 109.50000 418.400000
1182 14043 6774 1 109.50000 418.400000
1182 14043 9066 1 109.50000 418.400000
2335 14043 6774 1 109.50000 418.400000
2335 14043 9066 1 109.50000 418.400000
6774 14043 9066 1 109.50000 418.400000
3968 14044 6918 1 109.50000 418.400000
3968 14044 9068 1 109.50000 418.400000
3968 14044 10459 1 109.50000 418.400000
6918 14044 9068 1 109.50000 418.400000
6918 14044 10459 1 109.50000 418.400000
9068 14044 10459 1 109.50000 418.400000
4484 14045 4989 1 109.50000 418.400000
4484 14045 9070 1 109.50000 418.400000
4484 14045 9071 1 109.50000 418.400000
4989 14045 9070 1 109.50000 418.400000
4989 14045 9071 1 109.50000 418.400000
9070 14045 9071 1 109.50000 418.400000
4760 14046 4761 1 109.50000 418.400000
4760 14046 8148 1 109.50000 418.400000
4760 14046 9072 1 109.50000 418.400000
4761 14046 8148 1 109.50000 418.400000
4761 14046 9072 1 109.50000 418.400000
8148 14046 9072 1 109.50000 418.400000
4672 14047 5901 1 109.50000 418.400000
4672 14047 9074 1 109.50000 418.400000
4672 14047 9075 1 109.50000 418.400000
5901 14047 9074 1 109.50000 418.400000
5901 14047 9075 1 109.50000 418.400000
9074 14047 9075 1 109.50000 418.400000
9076 14048 9077 1 109.50000 418.400000
9076 14048 9078 1 109.50000 418.400000
9076 14048 9079 1 109.50000 418.400000
9077 14048 9078 1 109.50000 418.400000
9077 14048 9079 1 109.50000 418.400000
9078 14048 9079 1 109.50000 418.400000
4904 14049 9080 1 109.50000 418.400000
4904 14049 9081 1 109.50000 418.400000
4904 14049 9083 1 109.50000 418.400000
9080 14049 9081 1 109.50000 418.400000
9080 14049 9083 1 109.50000 418.400000
9081 14049 9083 1 109.50000 418.400000
5795 14050 7269 1 109.50000 418.400000
5795 14050 8397 1 109.50000 418.400000
5795 14050 9084 1 109.50000 418.400000
7269 14050 8397 1 109.50000 418.400000
7269 14050 9084 1 109.50000 418.400000
8397 14050 9084 1 109.50000 418.400000
3734 14051 5329 1 109.50000 418.400000
3734 14051 6336 1 109.50000 418.400000
3734 14051 6337 1 109.50000 418.400000
5329 14051 6336 1 109.50000 418.400000
5329 14051 6337 1 109.50000 418.400000
6336 14051 6337 1 109.50000 418.400000
6165 14052 6620 1 109.50000 418.400000
6165 14052 6622 1 109.50000 418.400000
6165 14052 9086 1 109.50000 418.400000
6620 14052 6622 1 109.50000 418.400000
6620 14052 9086 1 109.50000 418.400000
6622 14052 9086 1 109.50000 418.400000
453 14053 1519 1 109.50000 418.400000
453 14053 7381 1 109.50000 418.400000
453 14053 9087 1 109.50000 418.400000
1519 14053 7381 1 109.50000 418.400000
1519 14053 9087 1 109.50000 418.400000
7381 14053 9087 1 109.50000 418.400000
435 14054 9091 1 109.50000 418.400000
435 14054 9092 1 109.50000 418.400000
435 14054 9093 1 109.50000 418.400000
9091 14054 9092 1 109.50000 418.400000
9091 14054 9093 1 109.50000 418.400000
9092 14054 9093 1 109.50000 418.400000
5546 14055 9093 1 109.50000 418.400000
5546 14055 9094 1 109.50000 418.400000
5546 14055 9095 1 109.50000 418.400000
9093 14055 9094 1 109.50000 418.400000
9093 14055 9095 1 109.50000 418.400000
9094 14055 9095 1 109.50000 418.400000
6499 14056 9081 1 109.50000 418.400000
6499 14056 9096 1 109.50000 418.400000
6499 14056 9097 1 109.50000 418.400000
9081 14056 9096 1 109.50000 418.400000
9081 14056 9097 1 109.50000 418.400000
9096 14056 9097 1 109.50000 418.400000
3605 14057 8424 1 109.50000 418.400000
3605 14057 9099 1 109.50000 418.400000
3605 14057 9100 1 109.50000 418.400000
8424 14057 9099 1 109.50000 418.400000
8424 14057 9100 1 109.50000 418.400000
9099 14057 9100 1 109.50000 418.400000
5564 14058 6312 1 109.50000 418.400000
5564 14058 9101 1 109.50000 418.400000
5564 14058 9102 1 109.50000 418.400000
6312 14058 9101 1 109.50000 418.400000
6312 14058 9102 1 109.50000 418.400000
9101 14058 9102 1 109.50000 418.400000
7202 14059 9105 1 109.50000 418.400000
7202 14059 9106 1 109.50000 418.400000
7202 14059 9107 1 109.50000 418.400000
9105 14059 9106 1 109.50000 418.400000
9105 14059 9107 1 109.50000 418.400000
9106 14059 9107 1 109.50000 418.400000
4428 14060 7498 1 109.50000 418.400000
4428 14060 7518 1 109.50000 418.400000
4428 14060 9108 1 109.50000 418.400000
7498 14060 7518 1 109.50000 418.400000
7498 14060 9108 1 109.50000 418.400000
7518 14060 9108 1 109.50000 418.400000
6708 14061 8322 1 109.50000 418.400000
6708 14061 9060 1 109.50000 418.400000
6708 14061 9109 1 109.50000 418.400000
8322 14061 9060 1 109.50000 418.400000
8322 14061 9109 1 109.50000 418.400000
9060 14061 9109 1 109.50000 418.400000
6174 14062 7712 1 109.50000 418.400000
6174 14062 9110 1 109.50000 418.400000
6174 14062 9112 1 109.50000 418.400000
7712 14062 9110 1 109.50000 418.400000
7712 14062 9112 1 109.50000 418.400000
9110 14062 9112 1 109.50000 418.400000
5942 14063 6487 1 109.50000 418.400000
5942 14063 6488 1 109.50000 418.400000
5942 14063 9113 1 109.50000 418.400000
6487 14063 6488 1 109.50000 418.400000
6487 14063 9113 1 109.50000 418.400000
6488 14063 9113 1 109.50000 418.400000
4219 14064 9114 1 109.50000 418.400000
4219 14064 9115 1 109.50000 418.400000
4219 14064 9116 1 109.50000 418.400000
9114 14064 9115 1 109.50000 418.400000
9114 14064 9116 1 109.50000 418.400000
9115 14064 9116 1 109.50000 418.400000
7786 14065 9117 1 109.50000 418.400000
7786 14065 9118 1 109.50000 418.400000
7786 14065 9120 1 109.50000 418.400000
9117 14065 9118 1 109.50000 418.400000
9117 14065 9120 1 109.50000 418.400000
9118 14065 9120 1 109.50000 418.400000
7724 14066 8033 1 109.50000 418.400000
7724 14066 9121 1 109.50000 418.400000
7724 14066 9122 1 109.50000 418.400000
8033 14066 9121 1 109.50000 418.400000
8033 14066 9122 1 109.50000 418.400000
9121 14066 9122 1 109.50000 418.400000
5042 14067 9123 1 109.50000 418.400000
5042 14067 9124 1 109.50000 418.400000
5042 14067 9125 1 109.50000 418.400000
9123 14067 9124 1 109.50000 418.400000
9123 14067 9125 1 109.50000 418.400000
9124 14067 9125 1 109.50000 418.400000
3205 14068 9107 1 109.50000 418.400000
3205 14068 9127 1 109.50000 418.400000
3205 14068 9128 1 109.50000 418.400000
9107 14068 9127 1 109.50000 418.400000
9107 14068 9128 1 109.50000 418.400000
9127 14068 9128 1 109.50000 418.400000
1192 14069 5619 1 109.50000 418.400000
1192 14069 5625 1 109.50000 418.400000
1192 14069 7699 1 109.50000 418.400000
5619 14069 5625 1 109.50000 418.400000
5619 14069 7699 1 109.50000 418.400000
5625 14069 7699 1 109.50000 418.400000
1378 14070 4375 1 109.50000 418.400000
1378 14070 8737 1 109.50000 418.400000
1378 14070 9129 1 109.50000 418.400000
4375 14070 8737 1 109.50000 418.400000
4375 14070 9129 1 109.50000 418.400000
8737 14070 9129 1 109.50000 418.400000
9130 14071 9131 1 109.50000 418.400000
9130 14071 9132 1 109.50000 418.400000
9130 14071 9133 1 109.50000 418.400000
9131 14071 9132 1 109.50000 418.400000
9131 14071 9133 1 109.50000 418.400000
9132 14071 9133 1 109.50000 418.400000
1621 14072 2525 1 109.50000 418.400000
1621 14072 7275 1 109.50000 418.400000
1621 14072 8699 1 109.50000 418.400000
2525 14072 7275 1 109.50000 418.400000
2525 14072 8699 1 109.50000 418.400000
7275 14072 8699 1 109.50000 418.400000
3326 14073 3328 1 109.50000 418.400000
3326 14073 4686 1 109.50000 418.400000
3326 14073 4893 1 109.50000 418.400000
3328 14073 4686 1 109.50000 418.400000
3328 14073 4893 1 109.50000 418.400000
4686 14073 4893 1 109.50000 418.400000
1334 14074 3691 1 109.50000 418.400000
1334 14074 9135 1 109.50000 418.400000
1334 14074 9136 1 109.50000 418.400000
3691 14074 9135 1 109.50000 418.400000
3691 14074 9136 1 109.50000 418.400000
9135 14074 9136 1 109.50000 418.400000
1445 14075 7010 1 109.50000 418.400000
1445 14075 9137 1 109.50000 418.400000
1445 14075 9138 1 109.50000 418.400000
7010 14075 9137 1 109.50000 418.400000
7010 14075 9138 1 109.50000 418.400000
9137 14075 9138 1 109.50000 418.400000
2827 14076 5097 1 109.50000 418.400000
2827 14076 7206 1 109.50000 418.400000
2827 14076 9141 1 109.50000 418.400000
5097 14076 7206 1 109.50000 418.400000
5097 14076 9141 1 109.50000 418.400000
7206 14076 9141 1 109.50000 418.400000
2076 14077 8157 1 109.50000 418.400000
2076 14077 9019 1 109.50000 418.400000
2076 14077 9142 1 109.50000 418.400000
8157 14077 9019 1 109.50000 418.400000
8157 14077 9142 1 109.50000 418.400000
9019 14077 9142 1 109.50000 418.400000
367 14078 7898 1 109.50000 418.400000
367 14078 8366 1 109.50000 418.400000
367 14078 9145 1 109.50000 418.400000
7898 14078 8366 1 109.50000 418.400000
7898 14078 9145 1 109.50000 418.400000
8366 14078 9145 1 109.50000 418.400000
2881 14079 3960 1 109.50000 418.400000
2881 14079 7867 1 109.50000 418.400000
2881 14079 7993 1 109.50000 418.400000
3960 14079 7867 1 109.50000 418.400000
3960 14079 7993 1 109.50000 418.400000
7867 14079 7993 1 109.50000 418.400000
2489 14080 5655 1 109.50000 418.400000
2489 14080 8753 1 109.50000 418.400000
2489 14080 9148 1 109.50000 418.400000
5655 14080 8753 1 109.50000 418.400000
5655 14080 9148 1 109.50000 418.400000
8753 14080 9148 1 109.50000 418.400000
5605 14081 9149 1 109.50000 418.400000
5605 14081 9150 1 109.50000 418.400000
5605 14081 9151 1 109.50000 418.400000
9149 14081 9150 1 109.50000 418.400000
9149 14081 9151 1 109.50000 418.400000
9150 14081 9151 1 109.50000 418.400000
7420 14082 9152 1 109.50000 418.400000
7420 14082 9153 1 109.50000 418.400000
7420 14082 9154 1 109.50000 418.400000
9152 14082 9153 1 109.50000 418.400000
9152 14082 9154 1 109.50000 418.400000
9153 14082 9154 1 109.50000 418.400000
4625 14083 5562 1 109.50000 418.400000
4625 14083 7334 1 109.50000 418.400000
4625 14083 9155 1 109.50000 418.400000
5562 14083 7334 1 109.50000 418.400000
5562 14083 9155 1 109.50000 418.400000
7334 14083 9155 1 109.50000 418.400000
1505 14084 3583 1 109.50000 418.400000
1505 14084 9156 1 109.50000 418.400000
1505 14084 9157 1 109.50000 418.400000
3583 14084 9156 1 109.50000 418.400000
3583 14084 9157 1 109.50000 418.400000
9156 14084 9157 1 109.50000 418.400000
2505 14085 2507 1 109.50000 418.400000
2505 14085 5438 1 109.50000 418.400000
2505 14085 9158 1 109.50000 418.400000
2507 14085 5438 1 109.50000 418.400000
2507 14085 9158 1 109.50000 418.400000
5438 14085 9158 1 109.50000 418.400000
7748 14086 9160 1 109.50000 418.400000
7748 14086 9161 1 109.50000 418.400000
7748 14086 9162 1 109.50000 418.400000
9160 14086 9161 1 109.50000 418.400000
9160 14086 9162 1 109.50000 418.400000
9161 14086 9162 1 109.50000 418.400000
3431 14087 9163 1 109.50000 418.400000
3431 14087 9164 1 109.50000 418.400000
3431 14087 9165 1 109.50000 418.400000
9163 14087 9164 1 109.50000 418.400000
9163 14087 9165 1 109.50000 418.400000
9164 14087 9165 1 109.50000 418.400000
8258 14088 8871 1 109.50000 418.400000
8258 14088 9166 1 109.50000 418.400000
8258 14088 9167 1 109.50000 418.400000
8871 14088 9166 1 109.50000 418.400000
8871 14088 9167 1 109.50000 418.400000
9166 14088 9167 1 109.50000 418.400000
2163 14089 4480 1 109.50000 418.400000
2163 14089 5434 1 109.50000 418.400000
2163 14089 9110 1 109.50000 418.400000
4480 14089 5434 1 109.50000 418.400000
4480 14089 9110 1 109.50000 418.400000
5434 14089 9110 1 109.50000 418.400000
351 14090 1775 1 109.50000 418.400000
351 14090 2869 1 109.50000 418.400000
351 14090 9169 1 109.50000 418.400000
1775 14090 2869 1 109.50000 418.400000
1775 14090 9169 1 109.50000 418.400000
2869 14090 9169 1 109.50000 418.400000
1058 14091 6661 1 109.50000 418.400000
1058 14091 7014 1 109.50000 418.400000
1058 14091 9084 1 109.50000 418.400000
6661 14091 7014 1 109.50000 418.400000
6661 14091 9084 1 109.50000 418.400000
7014 14091 9084 1 109.50000 418.400000
3911 14092 8395 1 109.50000 418.400000
3911 14092 9170 1 109.50000 418.400000
3911 14092 9171 1 109.50000 418.400000
8395 14092 9170 1 109.50000 418.400000
8395 14092 9171 1 109.50000 418.400000
9170 14092 9171 1 109.50000 418.400000
786 14093 2180 1 109.50000 418.400000
786 14093 3607 1 109.50000 418.400000
786 14093 9173 1 109.50000 418.400000
2180 14093 3607 1 109.50000 418.400000
2180 14093 9173 1 109.50000 418.400000
3607 14093 9173 1 109.50000 418.400000
6253 14094 7246 1 109.50000 418.400000
6253 14094 9176 1 109.50000 418.400000
6253 14094 9177 1 109.50000 418.400000
7246 14094 9176 1 109.50000 418.400000
7246 14094 9177 1 109.50000 418.400000
9176 14094 9177 1 109.50000 418.400000
7495 14095 7857 1 109.50000 418.400000
7495 14095 8721 1 109.50000 418.400000
7495 14095 9178 1 109.50000 418.400000
7857 14095 8721 1 109.50000 418.400000
7857 14095 9178 1 109.50000 418.400000
8721 14095 9178 1 109.50000 418.400000
8105 14096 8106 1 109.50000 418.400000
8105 14096 9179 1 109.50000 418.400000
8105 14096 9181 1 109.50000 418.400000
8106 14096 9179 1 109.50000 418.400000
8106 14096 9181 1 109.50000 418.400000
9179 14096 9181 1 109.50000 418.400000
888 14097 8499 1 109.50000 418.400000
888 14097 9182 1 109.50000 418.400000
888 14097 10755 1 109.50000 418.400000
8499 14097 9182 1 109.50000 418.400000
8499 14097 10755 1 109.50000 418.400000
9182 14097 10755 1 109.50000 418.400000
4467 14098 7166 1 109.50000 418.400000
4467 14098 7779 1 109.50000 418.400000
4467 14098 8461 1 109.50000 418.400000
7166 14098 7779 1 109.50000 418.400000
7166 14098 8461 1 109.50000 418.400000
7779 14098 8461 1 109.50000 418.400000
4434 14099 6199 1 109.50000 418.400000
4434 14099 9183 1 109.50000 418.400000
4434 14099 9184 1 109.50000 418.400000
6199 14099 9183 1 109.50000 418.400000
6199 14099 9184 1 109.50000 418.400000
9183 14099 9184 1 109.50000 418.400000
1647 14100 6689 1 109.50000 418.400000
1647 14100 8503 1 109.50000 418.400000
1647 14100 9185 1 109.50000 418.400000
6689 14100 8503 1 109.50000 418.400000
6689 14100 9185 1 109.50000 418.400000
8503 14100 9185 1 109.50000 418.400000
2001 14101 2545 1 109.50000 418.400000
2001 14101 7946 1 109.50000 418.400000
2001 14101 8034 1 109.50000 418.400000
2545 14101 7946 1 109.50000 418.400000
2545 14101 8034 1 109.50000 418.400000
7946 14101 8034 1 109.50000 418.400000
2910 14102 4299 1 109.50000 418.400000
2910 14102 5482 1 109.50000 418.400000
2910 14102 9186 1 109.50000 418.400000
4299 14102 5482 1 109.50000 418.400000
4299 14102 9186 1 109.50000 418.400000
5482 14102 9186 1 109.50000 418.400000
4999 14103 5713 1 109.50000 418.400000
4999 14103 7644 1 109.50000 418.400000
4999 14103 9187 1 109.50000 418.400000
5713 14103 7644 1 109.50000 418.400000
5713 14103 9187 1 109.50000 418.400000
7644 14103 9187 1 109.50000 418.400000
5584 14104 7481 1 109.50000 418.400000
5584 14104 8765 1 109.50000 418.400000
5584 14104 9188 1 109.50000 418.400000
7481 14104 8765 1 109.50000 418.400000
7481 14104 9188 1 109.50000 418.400000
8765 14104 9188 1 109.50000 418.400000
3018 14105 3390 1 109.50000 418.400000
3018 14105 8539 1 109.50000 418.400000
3018 14105 9192 1 109.50000 418.400000
3390 14105 8539 1 109.50000 418.400000
3390 14105 9192 1 109.50000 418.400000
8539 14105 9192 1 109.50000 418.400000
2159 14106 6561 1 109.50000 418.400000
2159 14106 8370 1 109.50000 418.400000
2159 14106 9195 1 109.50000 418.400000
6561 14106 8370 1 109.50000 418.400000
6561 14106 9195 1 109.50000 418.400000
8370 14106 9195 1 109.50000 418.400000
5531 14107 8263 1 109.50000 418.400000
5531 14107 9196 1 109.50000 418.400000
5531 14107 9197 1 109.50000 418.400000
8263 14107 9196 1 109.50000 418.400000
8263 14107 9197 1 109.50000 418.400000
9196 14107 9197 1 109.50000 418.400000
4827 14108 9198 1 109.50000 418.400000
4827 14108 9199 1 109.50000 418.400000
4827 14108 9200 1 109.50000 418.400000
9198 14108 9199 1 109.50000 418.400000
9198 14108 9200 1 109.50000 418.400000
9199 14108 9200 1 109.50000 418.400000
5375 14109 7144 1 109.50000 418.400000
5375 14109 9201 1 109.50000 418.400000
5375 14109 9202 1 109.50000 418.400000
7144 14109 9201 1 109.50000 418.400000
7144 14109 9202 1 109.50000 418.400000
9201 14109 9202 1 109.50000 418.400000
2977 14110 8293 1 109.50000 418.400000
2977 14110 9203 1 109.50000 418.400000
2977 14110 9204 1 109.50000 418.400000
8293 14110 9203 1 109.50000 418.400000
8293 14110 9204 1 109.50000 418.400000
9203 14110 9204 1 109.50000 418.400000
1522 14111 5271 1 109.50000 418.400000
1522 14111 9205 1 109.50000 418.400000
1522 14111 9206 1 109.50000 418.400000
5271 14111 9205 1 109.50000 418.400000
5271 14111 9206 1 109.50000 418.400000
9205 14111 9206 1 109.50000 418.400000
398 14112 400 1 109.50000 418.400000
398 14112 2911 1 109.50000 418.400000
398 14112 6209 1 109.50000 418.400000
400 14112 2911 1 109.50000 418.400000
400 14112 6209 1 109.50000 418.400000
2911 14112 6209 1 109.50000 418.400000
778 14113 9207 1 109.50000 418.400000
778 14113 9208 1 109.50000 418.400000
778 14113 9209 1 109.50000 418.400000
9207 14113 9208 1 109.50000 418.400000
9207 14113 9209 1 109.50000 418.400000
9208 14113 9209 1 109.50000 418.400000
597 14114 9210 1 109.50000 418.400000
597 14114 9211 1 109.50000 418.400000
597 14114 9212 1 109.50000 418.400000
9210 14114 9211 1 109.50000 418.400000
9210 14114 9212 1 109.50000 418.400000
9211 14114 9212 1 109.50000 418.400000
3187 14115 5684 1 109.50000 418.400000
3187 14115 5911 1 109.50000 418.400000
3187 14115 9213 1 109.50000 418.400000
5684 14115 5911 1 109.50000 418.400000
5684 14115 9213 1 109.50000 418.400000
5911 14115 9213 1 109.50000 418.400000
2071 14116 5035 1 109.50000 418.400000
2071 14116 5076 1 109.50000 418.400000
2071 14116 9214 1 109.50000 418.400000
5035 14116 5076 1 109.50000 418.400000
5035 14116 9214 1 109.50000 418.400000
5076 14116 9214 1 109.50000 418.400000
6185 14117 9215 1 109.50000 418.400000
6185 14117 9362 1 109.50000 418.400000
6185 14117 10920 1 109.50000 418.400000
9215 14117 9362 1 109.50000 418.400000
9215 14117 10920 1 109.50000 418.400000
9362 14117 10920 1 109.50000 418.400000
3597 14118 8501 1 109.50000 418.400000
3597 14118 8777 1 109.50000 418.400000
3597 14118 9218 1 109.50000 418.400000
8501 14118 8777 1 109.50000 418.400000
8501 14118 9218 1 109.50000 418.400000
8777 14118 9218 1 109.50000 418.400000
2782 14119 6255 1 109.50000 418.400000
2782 14119 8254 1 109.50000 418.400000
2782 14119 9219 1 109.50000 418.400000
6255 14119 8254 1 109.50000 418.400000
6255 14119 9219 1 109.50000 418.400000
8254 14119 9219 1 109.50000 418.400000
3319 14120 6208 1 109.50000 418.400000
3319 14120 9220 1 109.50000 418.400000
3319 14120 9221 1 109.50000 418.400000
6208 14120 9220 1 109.50000 418.400000
6208 14120 9221 1 109.50000 418.400000
9220 14120 9221 1 109.50000 418.400000
1311 14121 1320 1 109.50000 418.400000
1311 14121 6637 1 109.50000 418.400000
1311 14121 9222 1 109.50000 418.400000
1320 14121 6637 1 109.50000 418.400000
1320 14121 9222 1 109.50000 418.400000
6637 14121 9222 1 109.50000 418.400000
1902 14122 1905 1 109.50000 418.400000
1902 14122 9223 1 109.50000 418.400000
1902 14122 9224 1 109.50000 418.400000
1905 14122 9223 1 109.50000 418.400000
1905 14122 9224 1 109.50000 418.400000
9223 14122 9224 1 109.50000 418.400000
4335 14123 4788 1 109.50000 418.400000
4335 14123 6777 1 109.50000 418.400000
4335 14123 9225 1 109.50000 418.400000
4788 14123 6777 1 109.50000 418.400000
4788 14123 9225 1 109.50000 418.400000
6777 14123 9225 1 109.50000 418.400000
2750 14124 8051 1 109.50000 418.400000
2750 14124 9226 1 109.50000 418.400000
2750 14124 9227 1 109.50000 418.400000
8051 14124 9226 1 109.50000 418.400000
8051 14124 9227 1 109.50000 418.400000
9226 14124 9227 1 109.50000 418.400000
6797 14125 7227 1 109.50000 418.400000
6797 14125 8066 1 109.50000 418.400000
6797 14125 9228 1 109.50000 418.400000
7227 14125 8066 1 109.50000 418.400000
7227 14125 9228 1 109.50000 418.400000
8066 14125 9228 1 109.50000 418.400000
1477 14126 9229 1 109.50000 418.400000
1477 14126 9230 1 109.50000 418.400000
1477 14126 9231 1 109.50000 418.400000
9229 14126 9230 1 109.50000 418.400000
9229 14126 9231 1 109.50000 418.400000
9230 14126 9231 1 109.50000 418.400000
2084 14127 3816 1 109.50000 418.400000
2084 14127 5748 1 109.50000 418.400000
2084 14127 7106 1 109.50000 418.400000
3816 14127 5748 1 109.50000 418.400000
3816 14127 7106 1 109.50000 418.400000
5748 14127 7106 1 109.50000 418.400000
906 14128 909 1 109.50000 418.400000
906 14128 6923 1 109.50000 418.400000
906 14128 6924 1 109.50000 418.400000
909 14128 6923 1 109.50000 418.400000
909 14128 6924 1 109.50000 418.400000
6923 14128 6924 1 109.50000 418.400000
5125 14129 6770 1 109.50000 418.400000
5125 14129 9232 1 109.50000 418.400000
5125 14129 9233 1 109.50000 418.400000
6770 14129 9232 1 109.50000 418.400000
6770 14129 9233 1 109.50000 418.400000
9232 14129 9233 1 109.50000 418.400000
386 14130 4588 1 109.50000 418.400000
386 14130 8021 1 109.50000 418.400000
386 14130 9219 1 109.50000 418.400000
4588 14130 8021 1 109.50000 418.400000
4588 14130 9219 1 109.50000 418.400000
8021 14130 9219 1 109.50000 418.400000
455 14131 5669 1 109.50000 418.400000
455 14131 9234 1 109.50000 418.400000
455 14131 9235 1 109.50000 418.400000
5669 14131 9234 1 109.50000 418.400000
5669 14131 9235 1 109.50000 418.400000
9234 14131 9235 1 109.50000 418.400000
616 14132 8056 1 109.50000 418.400000
616 14132 9236 1 109.50000 418.400000
616 14132 9237 1 109.50000 418.400000
8056 14132 9236 1 109.50000 418.400000
8056 14132 9237 1 109.50000 418.400000
9236 14132 9237 1 109.50000 418.400000
4622 14133 5687 1 109.50000 418.400000
4622 14133 9238 1 109.50000 418.400000
4622 14133 9239 1 109.50000 418.400000
5687 14133 9238 1 109.50000 418.400000
5687 14133 9239 1 109.50000 418.400000
9238 14133 9239 1 109.50000 418.400000
2168 14134 9240 1 109.50000 418.400000
2168 14134 9241 1 109.50000 418.400000
2168 14134 9242 1 109.50000 418.400000
9240 14134 9241 1 109.50000 418.400000
9240 14134 9242 1 109.50000 418.400000
9241 14134 9242 1 109.50000 418.400000
5098 14135 7235 1 109.50000 418.400000
5098 14135 9243 1 109.50000 418.400000
5098 14135 9244 1 109.50000 418.400000
7235 14135 9243 1 109.50000 418.400000
7235 14135 9244 1 109.50000 418.400000
9243 14135 9244 1 109.50000 418.400000
3412 14136 9245 1 109.50000 418.400000
3412 14136 9246 1 109.50000 418.400000
3412 14136 9247 1 109.50000 418.400000
9245 14136 9246 1 109.50000 418.400000
9245 14136 9247 1 109.50000 418.400000
9246 14136 9247 1 109.50000 418.400000
7040 14137 9248 1 109.50000 418.400000
7040 14137 9249 1 109.50000 418.400000
7040 14137 9250 1 109.50000 418.400000
9248 14137 9249 1 109.50000 418.400000
9248 14137 9250 1 109.50000 418.400000
9249 14137 9250 1 109.50000 418.400000
2503 14138 8525 1 109.50000 418.400000
2503 14138 9251 1 109.50000 418.400000
2503 14138 9252 1 109.50000 418.400000
8525 14138 9251 1 109.50000 418.400000
8525 14138 9252 1 109.50000 418.400000
9251 14138 9252 1 109.50000 418.400000
4421 14139 6606 1 109.50000 418.400000
4421 14139 7682 1 109.50000 418.400000
4421 14139 9253 1 109.50000 418.400000
6606 14139 7682 1 109.50000 418.400000
6606 14139 9253 1 109.50000 418.400000
7682 14139 9253 1 109.50000 418.400000
6044 14140 7352 1 109.50000 418.400000
6044 14140 9255 1 109.50000 418.400000
6044 14140 9256 1 109.50000 418.400000
7352 14140 9255 1 109.50000 418.400000
7352 14140 9256 1 109.50000 418.400000
9255 14140 9256 1 109.50000 418.400000
472 14141 5524 1 109.50000 418.400000
472 14141 9257 1 109.50000 418.400000
472 14141 9258 1 109.50000 418.400000
5524 14141 9257 1 109.50000 418.400000
5524 14141 9258 1 109.50000 418.400000
9257 14141 9258 1 109.50000 418.400000
5757 14142 7292 1 109.50000 418.400000
5757 14142 9259 1 109.50000 418.400000
5757 14142 9260 1 109.50000 418.400000
7292 14142 9259 1 109.50000 418.400000
7292 14142 9260 1 109.50000 418.400000
9259 14142 9260 1 109.50000 418.400000
4716 14143 4892 1 109.50000 418.400000
4716 14143 9261 1 109.50000 418.400000
4716 14143 9262 1 109.50000 418.400000
4892 14143 9261 1 109.50000 418.400000
4892 14143 9262 1 109.50000 418.400000
9261 14143 9262 1 109.50000 418.400000
2096 14144 6192 1 109.50000 418.400000
2096 14144 9249 1 109.50000 418.400000
2096 14144 9265 1 109.50000 418.400000
6192 14144 9249 1 109.50000 418.400000
6192 14144 9265 1 109.50000 418.400000
9249 14144 9265 1 109.50000 418.400000
302 14145 3673 1 109.50000 418.400000
302 14145 7089 1 109.50000 418.400000
302 14145 9063 1 109.50000 418.400000
3673 14145 7089 1 109.50000 418.400000
3673 14145 9063 1 109.50000 418.400000
7089 14145 9063 1 109.50000 418.400000
6857 14146 9266 1 109.50000 418.400000
6857 14146 9267 1 109.50000 418.400000
6857 14146 9268 1 109.50000 418.400000
9266 14146 9267 1 109.50000 418.400000
9266 14146 9268 1 109.50000 418.400000
9267 14146 9268 1 109.50000 418.400000
3919 14147 6397 1 109.50000 418.400000
3919 14147 9012 1 109.50000 418.400000
3919 14147 9270 1 109.50000 418.400000
6397 14147 9012 1 109.50000 418.400000
6397 14147 9270 1 109.50000 418.400000
9012 14147 9270 1 109.50000 418.400000
7044 14148 9272 1 109.50000 418.400000
7044 14148 9273 1 109.50000 418.400000
7044 14148 9274 1 109.50000 418.400000
9272 14148 9273 1 109.50000 418.400000
9272 14148 9274 1 109.50000 418.400000
9273 14148 9274 1 109.50000 418.400000
1219 14149 4551 1 109.50000 418.400000
1219 14149 5837 1 109.50000 418.400000
1219 14149 9275 1 109.50000 418.400000
4551 14149 5837 1 109.50000 418.400000
4551 14149 9275 1 109.50000 418.400000
5837 14149 9275 1 109.50000 418.400000
184 14150 278 1 109.50000 418.400000
184 14150 3009 1 109.50000 418.400000
184 14150 9277 1 109.50000 418.400000
278 14150 3009 1 109.50000 418.400000
278 14150 9277 1 109.50000 418.400000
3009 14150 9277 1 109.50000 418.400000
3573 14151 4475 1 109.50000 418.400000
3573 14151 7572 1 109.50000 418.400000
3573 14151 9278 1 109.50000 418.400000
4475 14151 7572 1 109.50000 418.400000
4475 14151 9278 1 109.50000 418.400000
7572 14151 9278 1 109.50000 418.400000
265 14152 9279 1 109.50000 418.400000
265 14152 9280 1 109.50000 418.400000
265 14152 9281 1 109.50000 418.400000
9279 14152 9280 1 109.50000 418.400000
9279 14152 9281 1 109.50000 418.400000
9280 14152 9281 1 109.50000 418.400000
1997 14153 2669 1 109.50000 418.400000
1997 14153 8796 1 109.50000 418.400000
1997 14153 9282 1 109.50000 418.400000
2669 14153 8796 1 109.50000 418.400000
2669 14153 9282 1 109.50000 418.400000
8796 14153 9282 1 109.50000 418.400000
1454 14154 2473 1 109.50000 418.400000
1454 14154 4854 1 109.50000 418.400000
1454 14154 5444 1 109.50000 418.400000
2473 14154 4854 1 109.50000 418.400000
2473 14154 5444 1 109.50000 418.400000
4854 14154 5444 1 109.50000 418.400000
354 14155 1839 1 109.50000 418.400000
354 14155 6493 1 109.50000 418.400000
354 14155 9285 1 109.50000 418.400000
1839 14155 6493 1 109.50000 418.400000
1839 14155 9285 1 109.50000 418.400000
6493 14155 9285 1 109.50000 418.400000
6460 14156 7333 1 109.50000 418.400000
6460 14156 9287 1 109.50000 418.400000
6460 14156 9288 1 109.50000 418.400000
7333 14156 9287 1 109.50000 418.400000
7333 14156 9288 1 109.50000 418.400000
9287 14156 9288 1 109.50000 418.400000
7392 14157 9289 1 109.50000 418.400000
7392 14157 9290 1 109.50000 418.400000
7392 14157 9291 1 109.50000 418.400000
9289 14157 9290 1 109.50000 418.400000
9289 14157 9291 1 109.50000 418.400000
9290 14157 9291 1 109.50000 418.400000
1359 14158 9213 1 109.50000 418.400000
1359 14158 9292 1 109.50000 418.400000
1359 14158 9293 1 109.50000 418.400000
9213 14158 9292 1 109.50000 418.400000
9213 14158 9293 1 109.50000 418.400000
9292 14158 9293 1 109.50000 418.400000
4747 14159 7608 1 109.50000 418.400000
4747 14159 8320 1 109.50000 418.400000
4747 14159 8835 1 109.50000 418.400000
7608 14159 8320 1 109.50000 418.400000
7608 14159 8835 1 109.50000 418.400000
8320 14159 8835 1 109.50000 418.400000
1682 14160 4350 1 109.50000 418.400000
1682 14160 6725 1 109.50000 418.400000
1682 14160 9294 1 109.50000 418.400000
4350 14160 6725 1 109.50000 418.400000
4350 14160 9294 1 109.50000 418.400000
6725 14160 9294 1 109.50000 418.400000
604 14161 6948 1 109.50000 418.400000
604 14161 9295 1 109.50000 418.400000
604 14161 9296 1 109.50000 418.400000
6948 14161 9295 1 109.50000 418.400000
6948 14161 9296 1 109.50000 418.400000
9295 14161 9296 1 109.50000 418.400000
2593 14162 9297 1 109.50000 418.400000
2593 14162 9298 1 109.50000 418.400000
2593 14162 9299 1 109.50000 418.400000
9297 14162 9298 1 109.50000 418.400000
9297 14162 9299 1 109.50000 418.400000
9298 14162 9299 1 109.50000 418.400000
2978 14163 6429 1 109.50000 418.400000
2978 14163 9300 1 109.50000 418.400000
2978 14163 9301 1 109.50000 418.400000
6429 14163 9300 1 109.50000 418.400000
6429 14163 9301 1 109.50000 418.400000
9300 14163 9301 1 109.50000 418.400000
1851 14164 8192 1 109.50000 418.400000
1851 14164 9302 1 109.50000 418.400000
1851 14164 9303 1 109.50000 418.400000
8192 14164 9302 1 109.50000 418.400000
8192 14164 9303 1 109.50000 418.400000
9302 14164 9303 1 109.50000 418.400000
5768 14165 8204 1 109.50000 418.400000
5768 14165 9280 1 109.50000 418.400000
5768 14165 9304 1 109.50000 418.400000
8204 14165 9280 1 109.50000 418.400000
8204 14165 9304 1 109.50000 418.400000
9280 14165 9304 1 109.50000 418.400000
793 14166 9305 1 109.50000 418.400000
793 14166 9306 1 109.50000 418.400000
793 14166 9307 1 109.50000 418.400000
9305 14166 9306 1 109.50000 418.400000
9305 14166 9307 1 109.50000 418.400000
9306 14166 9307 1 109.50000 418.400000
3272 14167 7165 1 109.50000 418.400000
3272 14167 8890 1 109.50000 418.400000
3272 14167 9308 1 109.50000 418.400000
7165 14167 8890 1 109.50000 418.400000
7165 14167 9308 1 109.50000 418.400000
8890 14167 9308 1 109.50000 418.400000
857 14168 6099 1 109.50000 418.400000
857 14168 8573 1 109.50000 418.400000
857 14168 8701 1 109.50000 418.400000
6099 14168 8573 1 109.50000 418.400000
6099 14168 8701 1 109.50000 418.400000
8573 14168 8701 1 109.50000 418.400000
1842 14169 3856 1 109.50000 418.400000
1842 14169 8779 1 109.50000 418.400000
1842 14169 9309 1 109.50000 418.400000
3856 14169 8779 1 109.50000 418.400000
3856 14169 9309 1 109.50000 418.400000
8779 14169 9309 1 109.50000 418.400000
3985 14170 6083 1 109.50000 418.400000
3985 14170 9310 1 109.50000 418.400000
3985 14170 9311 1 109.50000 418.400000
6083 14170 9310 1 109.50000 418.400000
6083 14170 9311 1 109.50000 418.400000
9310 14170 9311 1 109.50000 418.400000
8168 14171 9312 1 109.50000 418.400000
8168 14171 9313 1 109.50000 418.400000
8168 14171 9314 1 109.50000 418.400000
9312 14171 9313 1 109.50000 418.400000
9312 14171 9314 1 109.50000 418.400000
9313 14171 9314 1 109.50000 418.400000
2664 14172 7415 1 109.50000 418.400000
2664 14172 8216 1 109.50000 418.400000
2664 14172 8217 1 109.50000 418.400000
7415 14172 8216 1 109.50000 418.400000
7415 14172 8217 1 109.50000 418.400000
8216 14172 8217 1 109.50000 418.400000
5511 14173 8695 1 109.50000 418.400000
5511 14173 9315 1 109.50000 418.400000
5511 14173 9316 1 109.50000 418.400000
8695 14173 9315 1 109.50000 418.400000
8695 14173 9316 1 109.50000 418.400000
9315 14173 9316 1 109.50000 418.400000
1965 14174 2371 1 109.50000 418.400000
1965 14174 3102 1 109.50000 418.400000
1965 14174 9317 1 109.50000 418.400000
2371 14174 3102 1 109.50000 418.400000
2371 14174 9317 1 109.50000 418.400000
3102 14174 9317 1 109.50000 418.400000
6301 14175 7641 1 109.50000 418.400000
6301 14175 8868 1 109.50000 418.400000
6301 14175 9085 1 109.50000 418.400000
7641 14175 8868 1 109.50000 418.400000
7641 14175 9085 1 109.50000 418.400000
8868 14175 9085 1 109.50000 418.400000
1400 14176 6249 1 109.50000 418.400000
1400 14176 6542 1 109.50000 418.400000
1400 14176 8857 1 109.50000 418.400000
6249 14176 6542 1 109.50000 418.400000
6249 14176 8857 1 109.50000 418.400000
6542 14176 8857 1 109.50000 418.400000
6085 14177 9318 1 109.50000 418.400000
6085 14177 9319 1 109.50000 418.400000
6085 14177 9320 1 109.50000 418.400000
9318 14177 9319 1 109.50000 418.400000
9318 14177 9320 1 109.50000 418.400000
9319 14177 9320 1 109.50000 418.400000
6546 14178 7320 1 109.50000 418.400000
6546 14178 9321 1 109.50000 418.400000
6546 14178 9322 1 109.50000 418.400000
7320 14178 9321 1 109.50000 418.400000
7320 14178 9322 1 109.50000 418.400000
9321 14178 9322 1 109.50000 418.400000
3070 14179 5523 1 109.50000 418.400000
3070 14179 5603 1 109.50000 418.400000
3070 14179 9323 1 109.50000 418.400000
5523 14179 5603 1 109.50000 418.400000
5523 14179 9323 1 109.50000 418.400000
5603 14179 9323 1 109.50000 418.400000
1084 14180 8891 1 109.50000 418.400000
1084 14180 9324 1 109.50000 418.400000
1084 14180 9325 1 109.50000 418.400000
8891 14180 9324 1 109.50000 418.400000
8891 14180 9325 1 109.50000 418.400000
9324 14180 9325 1 109.50000 418.400000
7339 14181 7448 1 109.50000 418.400000
7339 14181 7743 1 109.50000 418.400000
7339 14181 9138 1 109.50000 418.400000
7448 14181 7743 1 109.50000 418.400000
7448 14181 9138 1 109.50000 418.400000
7743 14181 9138 1 109.50000 418.400000
3130 14182 3349 1 109.50000 418.400000
3130 14182 9326 1 109.50000 418.400000
3130 14182 9327 1 109.50000 418.400000
3349 14182 9326 1 109.50000 418.400000
3349 14182 9327 1 109.50000 418.400000
9326 14182 9327 1 109.50000 418.400000
1532 14183 5265 1 109.50000 418.400000
1532 14183 7158 1 109.50000 418.400000
1532 14183 9328 1 109.50000 418.400000
5265 14183 7158 1 109.50000 418.400000
5265 14183 9328 1 109.50000 418.400000
7158 14183 9328 1 109.50000 418.400000
6034 14184 6464 1 109.50000 418.400000
6034 14184 8089 1 109.50000 418.400000
6034 14184 9330 1 109.50000 418.400000
6464 14184 8089 1 109.50000 418.400000
6464 14184 9330 1 109.50000 418.400000
8089 14184 9330 1 109.50000 418.400000
9244 14185 9331 1 109.50000 418.400000
9244 14185 9332 1 109.50000 418.400000
9244 14185 9333 1 109.50000 418.400000
9331 14185 9332 1 109.50000 418.400000
9331 14185 9333 1 109.50000 418.400000
9332 14185 9333 1 109.50000 418.400000
5594 14186 7703 1 109.50000 418.400000
5594 14186 9334 1 109.50000 418.400000
5594 14186 9335 1 109.50000 418.400000
7703 14186 9334 1 109.50000 418.400000
7703 14186 9335 1 109.50000 418.400000
9334 14186 9335 1 109.50000 418.400000
1900 14187 3915 1 109.50000 418.400000
1900 14187 8036 1 109.50000 418.400000
1900 14187 9336 1 109.50000 418.400000
3915 14187 8036 1 109.50000 418.400000
3915 14187 9336 1 109.50000 418.400000
8036 14187 9336 1 109.50000 418.400000
8452 14188 8989 1 109.50000 418.400000
8452 14188 9337 1 109.50000 418.400000
8452 14188 9338 1 109.50000 418.400000
8989 14188 9337 1 109.50000 418.400000
8989 14188 9338 1 109.50000 418.400000
9337 14188 9338 1 109.50000 418.400000
1114 14189 4138 1 109.50000 418.400000
1114 14189 8377 1 109.50000 418.400000
1114 14189 9339 1 109.50000 418.400000
4138 14189 8377 1 109.50000 418.400000
4138 14189 9339 1 109.50000 418.400000
8377 14189 9339 1 109.50000 418.400000
4962 14190 9340 1 109.50000 418.400000
4962 14190 9341 1 109.50000 418.400000
4962 14190 10737 1 109.50000 418.400000
9340 14190 9341 1 109.50000 418.400000
9340 14190 10737 1 109.50000 418.400000
9341 14190 10737 1 109.50000 418.400000
831 14191 1680 1 109.50000 418.400000
831 14191 9342 1 109.50000 418.400000
831 14191 9343 1 109.50000 418.400000
1680 14191 9342 1 109.50000 418.400000
1680 14191 9343 1 109.50000 418.400000
9342 14191 9343 1 109.50000 418.400000
2618 14192 2805 1 109.50000 418.400000
2618 14192 9344 1 109.50000 418.400000
2618 14192 9345 1 109.50000 418.400000
2805 14192 9344 1 109.50000 418.400000
2805 14192 9345 1 109.50000 418.400000
9344 14192 9345 1 109.50000 418.400000
3675 14193 4035 1 109.50000 418.400000
3675 14193 7034 1 109.50000 418.400000
3675 14193 9346 1 109.50000 418.400000
4035 14193 7034 1 109.50000 418.400000
4035 14193 9346 1 109.50000 418.400000
7034 14193 9346 1 109.50000 418.400000
3621 14194 6193 1 109.50000 418.400000
3621 14194 7327 1 109.50000 418.400000
3621 14194 9347 1 109.50000 418.400000
6193 14194 7327 1 109.50000 418.400000
6193 14194 9347 1 109.50000 418.400000
7327 14194 9347 1 109.50000 418.400000
886 14195 6635 1 109.50000 418.400000
886 14195 9151 1 109.50000 418.400000
886 14195 9349 1 109.50000 418.400000
6635 14195 9151 1 109.50000 418.400000
6635 14195 9349 1 109.50000 418.400000
9151 14195 9349 1 109.50000 418.400000
4173 14196 7977 1 109.50000 418.400000
4173 14196 8976 1 109.50000 418.400000
4173 14196 9350 1 109.50000 418.400000
7977 14196 8976 1 109.50000 418.400000
7977 14196 9350 1 109.50000 418.400000
8976 14196 9350 1 109.50000 418.400000
1607 14197 5689 1 109.50000 418.400000
1607 14197 9351 1 109.50000 418.400000
1607 14197 9352 1 109.50000 418.400000
5689 14197 9351 1 109.50000 418.400000
5689 14197 9352 1 109.50000 418.400000
9351 14197 9352 1 109.50000 418.400000
49 14198 766 1 109.50000 418.400000
49 14198 5432 1 109.50000 418.400000
49 14198 9354 1 109.50000 418.400000
766 14198 5432 1 109.50000 418.400000
766 14198 9354 1 109.50000 418.400000
5432 14198 9354 1 109.50000 418.400000
6212 14199 8623 1 109.50000 418.400000
6212 14199 9355 1 109.50000 418.400000
6212 14199 9356 1 109.50000 418.400000
8623 14199 9355 1 109.50000 418.400000
8623 14199 9356 1 109.50000 418.400000
9355 14199 9356 1 109.50000 418.400000
666 14200 1511 1 109.50000 418.400000
666 14200 3824 1 109.50000 418.400000
666 14200 9357 1 109.50000 418.400000
1511 14200 3824 1 109.50000 418.400000
1511 14200 9357 1 109.50000 418.400000
3824 14200 9357 1 109.50000 418.400000
6980 14201 7277 1 109.50000 418.400000
6980 14201 9358 1 109.50000 418.400000
6980 14201 9360 1 109.50000 418.400000
7277 14201 9358 1 109.50000 418.400000
7277 14201 9360 1 109.50000 418.400000
9358 14201 9360 1 109.50000 418.400000
2533 14202 4472 1 109.50000 418.400000
2533 14202 6972 1 109.50000 418.400000
2533 14202 9361 1 109.50000 418.400000
4472 14202 6972 1 109.50000 418.400000
4472 14202 9361 1 109.50000 418.400000
6972 14202 9361 1 109.50000 418.400000
6539 14203 6757 1 109.50000 418.400000
6539 14203 8948 1 109.50000 418.400000
6539 14203 9216 1 109.50000 418.400000
6757 14203 8948 1 109.50000 418.400000
6757 14203 9216 1 109.50000 418.400000
8948 14203 9216 1 109.50000 418.400000
2767 14204 7872 1 109.50000 418.400000
2767 14204 9363 1 109.50000 418.400000
2767 14204 9364 1 109.50000 418.400000
7872 14204 9363 1 109.50000 418.400000
7872 14204 9364 1 109.50000 418.400000
9363 14204 9364 1 109.50000 418.400000
6996 14205 9365 1 109.50000 418.400000
6996 14205 9366 1 109.50000 418.400000
6996 14205 9367 1 109.50000 418.400000
9365 14205 9366 1 109.50000 418.400000
9365 14205 9367 1 109.50000 418.400000
9366 14205 9367 1 109.50000 418.400000
6453 14206 6631 1 109.50000 418.400000
6453 14206 9368 1 109.50000 418.400000
6453 14206 9369 1 109.50000 418.400000
6631 14206 9368 1 109.50000 418.400000
6631 14206 9369 1 109.50000 418.400000
9368 14206 9369 1 109.50000 418.400000
7410 14207 7901 1 109.50000 418.400000
7410 14207 7919 1 109.50000 418.400000
7410 14207 9370 1 109.50000 418.400000
7901 14207 7919 1 109.50000 418.400000
7901 14207 9370 1 109.50000 418.400000
7919 14207 9370 1 109.50000 418.400000
236 14208 6964 1 109.50000 418.400000
236 14208 9371 1 109.50000 418.400000
236 14208 9372 1 109.50000 418.400000
6964 14208 9371 1 109.50000 418.400000
6964 14208 9372 1 109.50000 418.400000
9371 14208 9372 1 109.50000 418.400000
963 14209 2448 1 109.50000 418.400000
963 14209 6846 1 109.50000 418.400000
963 14209 9373 1 109.50000 418.400000
2448 14209 6846 1 109.50000 418.400000
2448 14209 9373 1 109.50000 418.400000
6846 14209 9373 1 109.50000 418.400000
3449 14210 5026 1 109.50000 418.400000
3449 14210 9374 1 109.50000 418.400000
3449 14210 10082 1 109.50000 418.400000
5026 14210 9374 1 109.50000 418.400000
5026 14210 10082 1 109.50000 418.400000
9374 14210 10082 1 109.50000 418.400000
2783 14211 8277 1 109.50000 418.400000
2783 14211 9376 1 109.50000 418.400000
2783 14211 9377 1 109.50000 418.400000
8277 14211 9376 1 109.50000 418.400000
8277 14211 9377 1 109.50000 418.400000
9376 14211 9377 1 109.50000 418.400000
42 14212 9378 1 109.50000 418.400000
42 14212 9379 1 109.50000 418.400000
42 14212 9777 1 109.50000 418.400000
9378 14212 9379 1 109.50000 418.400000
9378 14212 9777 1 109.50000 418.400000
9379 14212 9777 1 109.50000 418.400000
3812 14213 3815 1 109.50000 418.400000
3812 14213 9380 1 109.50000 418.400000
3812 14213 9381 1 109.50000 418.400000
3815 14213 9380 1 109.50000 418.400000
3815 14213 9381 1 109.50000 418.400000
9380 14213 9381 1 109.50000 418.400000
6779 14214 9382 1 109.50000 418.400000
6779 14214 9383 1 109.50000 418.400000
6779 14214 9485 1 109.50000 418.400000
9382 14214 9383 1 109.50000 418.400000
9382 14214 9485 1 109.50000 418.400000
9383 14214 9485 1 109.50000 418.400000
5715 14215 6813 1 109.50000 418.400000
5715 14215 7665 1 109.50000 418.400000
5715 14215 9384 1 109.50000 418.400000
6813 14215 7665 1 109.50000 418.400000
6813 14215 9384 1 109.50000 418.400000
7665 14215 9384 1 109.50000 418.400000
8203 14216 9385 1 109.50000 418.400000
8203 14216 9386 1 109.50000 418.400000
8203 14216 9387 1 109.50000 418.400000
9385 14216 9386 1 109.50000 418.400000
9385 14216 9387 1 109.50000 418.400000
9386 14216 9387 1 109.50000 418.400000
1789 14217 8357 1 109.50000 418.400000
1789 14217 9389 1 109.50000 418.400000
1789 14217 9390 1 109.50000 418.400000
8357 14217 9389 1 109.50000 418.400000
8357 14217 9390 1 109.50000 418.400000
9389 14217 9390 1 109.50000 418.400000
5241 14218 6703 1 109.50000 418.400000
5241 14218 6704 1 109.50000 418.400000
5241 14218 9391 1 109.50000 418.400000
6703 14218 6704 1 109.50000 418.400000
6703 14218 9391 1 109.50000 418.400000
6704 14218 9391 1 109.50000 418.400000
4935 14219 5939 1 109.50000 418.400000
4935 14219 8441 1 109.50000 418.400000
4935 14219 9392 1 109.50000 418.400000
5939 14219 8441 1 109.50000 418.400000
5939 14219 9392 1 109.50000 418.400000
8441 14219 9392 1 109.50000 418.400000
7067 14220 9393 1 109.50000 418.400000
7067 14220 9394 1 109.50000 418.400000
7067 14220 9395 1 109.50000 418.400000
9393 14220 9394 1 109.50000 418.400000
9393 14220 9395 1 109.50000 418.400000
9394 14220 9395 1 109.50000 418.400000
5470 14221 6472 1 109.50000 418.400000
5470 14221 8797 1 109.50000 418.400000
5470 14221 9396 1 109.50000 418.400000
6472 14221 8797 1 109.50000 418.400000
6472 14221 9396 1 109.50000 418.400000
8797 14221 9396 1 109.50000 418.400000
663 14222 2803 1 109.50000 418.400000
663 14222 5494 1 109.50000 418.400000
663 14222 7731 1 109.50000 418.400000
2803 14222 5494 1 109.50000 418.400000
2803 14222 7731 1 109.50000 418.400000
5494 14222 7731 1 109.50000 418.400000
2722 14223 9397 1 109.50000 418.400000
2722 14223 9398 1 109.50000 418.400000
2722 14223 9399 1 109.50000 418.400000
9397 14223 9398 1 109.50000 418.400000
9397 14223 9399 1 109.50000 418.400000
9398 14223 9399 1 109.50000 418.400000
2225 14224 4310 1 109.50000 418.400000
2225 14224 5569 1 109.50000 418.400000
2225 14224 9400 1 109.50000 418.400000
4310 14224 5569 1 109.50000 418.400000
4310 14224 9400 1 109.50000 418.400000
5569 14224 9400 1 109.50000 418.400000
4296 14225 6111 1 109.50000 418.400000
4296 14225 7651 1 109.50000 418.400000
4296 14225 9401 1 109.50000 418.400000
6111 14225 7651 1 109.50000 418.400000
6111 14225 9401 1 109.50000 418.400000
7651 14225 9401 1 109.50000 418.400000
7784 14226 7785 1 109.50000 418.400000
7784 14226 9402 1 109.50000 418.400000
7784 14226 9403 1 109.50000 418.400000
7785 14226 9402 1 109.50000 418.400000
7785 14226 9403 1 109.50000 418.400000
9402 14226 9403 1 109.50000 418.400000
3545 14227 7622 1 109.50000 418.400000
3545 14227 8481 1 109.50000 418.400000
3545 14227 9404 1 109.50000 418.400000
7622 14227 8481 1 109.50000 418.400000
7622 14227 9404 1 109.50000 418.400000
8481 14227 9404 1 109.50000 418.400000
2292 14228 4925 1 109.50000 418.400000
2292 14228 7393 1 109.50000 418.400000
2292 14228 8660 1 109.50000 418.400000
4925 14228 7393 1 109.50000 418.400000
4925 14228 8660 1 109.50000 418.400000
7393 14228 8660 1 109.50000 418.400000
1907 14229 4440 1 109.50000 418.400000
1907 14229 4843 1 109.50000 418.400000
1907 14229 8652 1 109.50000 418.400000
4440 14229 4843 1 109.50000 418.400000
4440 14229 8652 1 109.50000 418.400000
4843 14229 8652 1 109.50000 418.400000
1270 14230 1321 1 109.50000 418.400000
1270 14230 7295 1 109.50000 418.400000
1270 14230 9406 1 109.50000 418.400000
1321 14230 7295 1 109.50000 418.400000
1321 14230 9406 1 109.50000 418.400000
7295 14230 9406 1 109.50000 418.400000
7640 14231 8356 1 109.50000 418.400000
7640 14231 9407 1 109.50000 418.400000
7640 14231 9408 1 109.50000 418.400000
8356 14231 9407 1 109.50000 418.400000
8356 14231 9408 1 109.50000 418.400000
9407 14231 9408 1 109.50000 418.400000
195 14232 3958 1 109.50000 418.400000
195 14232 7728 1 109.50000 418.400000
195 14232 9409 1 109.50000 418.400000
3958 14232 7728 1 109.50000 418.400000
3958 14232 9409 1 109.50000 418.400000
7728 14232 9409 1 109.50000 418.400000
288 14233 4007 1 109.50000 418.400000
288 14233 9410 1 109.50000 418.400000
288 14233 9411 1 109.50000 418.400000
4007 14233 9410 1 109.50000 418.400000
4007 14233 9411 1 109.50000 418.400000
9410 14233 9411 1 109.50000 418.400000
3452 14234 5127 1 109.50000 418.400000
3452 14234 9412 1 109.50000 418.400000
3452 14234 9413 1 109.50000 418.400000
5127 14234 9412 1 109.50000 418.400000
5127 14234 9413 1 109.50000 418.400000
9412 14234 9413 1 109.50000 418.400000
3361 14235 4473 1 109.50000 418.400000
3361 14235 8001 1 109.50000 418.400000
3361 14235 9414 1 109.50000 418.400000
4473 14235 8001 1 109.50000 418.400000
4473 14235 9414 1 109.50000 418.400000
8001 14235 9414 1 109.50000 418.400000
9415 14236 9416 1 109.50000 418.400000
9415 14236 9417 1 109.50000 418.400000
9415 14236 9418 1 109.50000 418.400000
9416 14236 9417 1 109.50000 418.400000
9416 14236 9418 1 109.50000 418.400000
9417 14236 9418 1 109.50000 418.400000
2508 14237 2668 1 109.50000 418.400000
2508 14237 7837 1 109.50000 418.400000
2508 14237 9419 1 109.50000 418.400000
2668 14237 7837 1 109.50000 418.400000
2668 14237 9419 1 109.50000 418.400000
7837 14237 9419 1 109.50000 418.400000
5895 14238 9420 1 109.50000 418.400000
5895 14238 9421 1 109.50000 418.400000
5895 14238 9422 1 109.50000 418.400000
9420 14238 9421 1 109.50000 418.400000
9420 14238 9422 1 109.50000 418.400000
9421 14238 9422 1 109.50000 418.400000
2889 14239 9423 1 109.50000 418.400000
2889 14239 9424 1 109.50000 418.400000
2889 14239 9425 1 109.50000 418.400000
9423 14239 9424 1 109.50000 418.400000
9423 14239 9425 1 109.50000 418.400000
9424 14239 9425 1 109.50000 418.400000
3792 14240 5682 1 109.50000 418.400000
3792 14240 7683 1 109.50000 418.400000
3792 14240 9426 1 109.50000 418.400000
5682 14240 7683 1 109.50000 418.400000
5682 14240 9426 1 109.50000 418.400000
7683 14240 9426 1 109.50000 418.400000
1582 14241 4289 1 109.50000 418.400000
1582 14241 6292 1 109.50000 418.400000
1582 14241 9427 1 109.50000 418.400000
4289 14241 6292 1 109.50000 418.400000
4289 14241 9427 1 109.50000 418.400000
6292 14241 9427 1 109.50000 418.400000
881 14242 7866 1 109.50000 418.400000
881 14242 9428 1 109.50000 418.400000
881 14242 9429 1 109.50000 418.400000
7866 14242 9428 1 109.50000 418.400000
7866 14242 9429 1 109.50000 418.400000
9428 14242 9429 1 109.50000 418.400000
7507 14243 7508 1 109.50000 418.400000
7507 14243 8392 1 109.50000 418.400000
7507 14243 9431 1 109.50000 418.400000
7508 14243 8392 1 109.50000 418.400000
7508 14243 9431 1 109.50000 418.400000
8392 14243 9431 1 109.50000 418.400000
2434 14244 9432 1 109.50000 418.400000
2434 14244 9433 1 109.50000 418.400000
2434 14244 9567 1 109.50000 418.400000
9432 14244 9433 1 109.50000 418.400000
9432 14244 9567 1 109.50000 418.400000
9433 14244 9567 1 109.50000 418.400000
4233 14245 7371 1 109.50000 418.400000
4233 14245 7384 1 109.50000 418.400000
4233 14245 9434 1 109.50000 418.400000
7371 14245 7384 1 109.50000 418.400000
7371 14245 9434 1 109.50000 418.400000
7384 14245 9434 1 109.50000 418.400000
1191 14246 4169 1 109.50000 418.400000
1191 14246 9435 1 109.50000 418.400000
1191 14246 9436 1 109.50000 418.400000
4169 14246 9435 1 109.50000 418.400000
4169 14246 9436 1 109.50000 418.400000
9435 14246 9436 1 109.50000 418.400000
703 14247 1322 1 109.50000 418.400000
703 14247 1804 1 109.50000 418.400000
703 14247 9437 1 109.50000 418.400000
1322 14247 1804 1 109.50000 418.400000
1322 14247 9437 1 109.50000 418.400000
1804 14247 9437 1 109.50000 418.400000
713 14248 2250 1 109.50000 418.400000
713 14248 3931 1 109.50000 418.400000
713 14248 5756 1 109.50000 418.400000
2250 14248 3931 1 109.50000 418.400000
2250 14248 5756 1 109.50000 418.400000
3931 14248 5756 1 109.50000 418.400000
6984 14249 8131 1 109.50000 418.400000
6984 14249 9438 1 109.50000 418.400000
6984 14249 9439 1 109.50000 418.400000
8131 14249 9438 1 109.50000 418.400000
8131 14249 9439 1 109.50000 418.400000
9438 14249 9439 1 109.50000 418.400000
1778 14250 5868 1 109.50000 418.400000
1778 14250 7445 1 109.50000 418.400000
1778 14250 9440 1 109.50000 418.400000
5868 14250 7445 1 109.50000 418.400000
5868 14250 9440 1 109.50000 418.400000
7445 14250 9440 1 109.50000 418.400000
5235 14251 9094 1 109.50000 418.400000
5235 14251 9250 1 109.50000 418.400000
5235 14251 9441 1 109.50000 418.400000
9094 14251 9250 1 109.50000 418.400000
9094 14251 9441 1 109.50000 418.400000
9250 14251 9441 1 109.50000 418.400000
5122 14252 8886 1 109.50000 418.400000
5122 14252 9442 1 109.50000 418.400000
5122 14252 9443 1 109.50000 418.400000
8886 14252 9442 1 109.50000 418.400000
8886 14252 9443 1 109.50000 418.400000
9442 14252 9443 1 109.50000 418.400000
3042 14253 7664 1 109.50000 418.400000
3042 14253 7726 1 109.50000 418.400000
3042 14253 9444 1 109.50000 418.400000
7664 14253 7726 1 109.50000 418.400000
7664 14253 9444 1 109.50000 418.400000
7726 14253 9444 1 109.50000 418.400000
9227 14254 9445 1 109.50000 418.400000
9227 14254 9446 1 109.50000 418.400000
9227 14254 9447 1 109.50000 418.400000
9445 14254 9446 1 109.50000 418.400000
9445 14254 9447 1 109.50000 418.400000
9446 14254 9447 1 109.50000 418.400000
6726 14255 9448 1 109.50000 418.400000
6726 14255 9449 1 109.50000 418.400000
6726 14255 9450 1 109.50000 418.400000
9448 14255 9449 1 109.50000 418.400000
9448 14255 9450 1 109.50000 418.400000
9449 14255 9450 1 109.50000 418.400000
2968 14256 7698 1 109.50000 418.400000
2968 14256 8410 1 109.50000 418.400000
2968 14256 9451 1 109.50000 418.400000
7698 14256 8410 1 109.50000 418.400000
7698 14256 9451 1 109.50000 418.400000
8410 14256 9451 1 109.50000 418.400000
6608 14257 7332 1 109.50000 418.400000
6608 14257 9453 1 109.50000 418.400000
6608 14257 9454 1 109.50000 418.400000
7332 14257 9453 1 109.50000 418.400000
7332 14257 9454 1 109.50000 418.400000
9453 14257 9454 1 109.50000 418.400000
1429 14258 5558 1 109.50000 418.400000
1429 14258 7840 1 109.50000 418.400000
1429 14258 9455 1 109.50000 418.400000
5558 14258 7840 1 109.50000 418.400000
5558 14258 9455 1 109.50000 418.400000
7840 14258 9455 1 109.50000 418.400000
9102 14259 9282 1 109.50000 418.400000
9102 14259 9412 1 109.50000 418.400000
9102 14259 9457 1 109.50000 418.400000
9282 14259 9412 1 109.50000 418.400000
9282 14259 9457 1 109.50000 418.400000
9412 14259 9457 1 109.50000 418.400000
1240 14260 2991 1 109.50000 418.400000
1240 14260 9458 1 109.50000 418.400000
1240 14260 11205 1 109.50000 418.400000
2991 14260 9458 1 109.50000 418.400000
2991 14260 11205 1 109.50000 418.400000
9458 14260 11205 1 109.50000 418.400000
4008 14261 8340 1 109.50000 418.400000
4008 14261 9459 1 109.50000 418.400000
4008 14261 9460 1 109.50000 418.400000
8340 14261 9459 1 109.50000 418.400000
8340 14261 9460 1 109.50000 418.400000
9459 14261 9460 1 109.50000 418.400000
890 14262 9461 1 109.50000 418.400000
890 14262 9462 1 109.50000 418.400000
890 14262 9463 1 109.50000 418.400000
9461 14262 9462 1 109.50000 418.400000
9461 14262 9463 1 109.50000 418.400000
9462 14262 9463 1 109.50000 418.400000
1658 14263 5822 1 109.50000 418.400000
1658 14263 8428 1 109.50000 418.400000
1658 14263 9466 1 109.50000 418.400000
5822 14263 8428 1 109.50000 418.400000
5822 14263 9466 1 109.50000 418.400000
8428 14263 9466 1 109.50000 418.400000
3126 14264 7774 1 109.50000 418.400000
3126 14264 9467 1 109.50000 418.400000
3126 14264 9468 1 109.50000 418.400000
7774 14264 9467 1 109.50000 418.400000
7774 14264 9468 1 109.50000 418.400000
9467 14264 9468 1 109.50000 418.400000
4344 14265 9469 1 109.50000 418.400000
4344 14265 9470 1 109.50000 418.400000
4344 14265 9471 1 109.50000 418.400000
9469 14265 9470 1 109.50000 418.400000
9469 14265 9471 1 109.50000 418.400000
9470 14265 9471 1 109.50000 418.400000
5169 14266 7083 1 109.50000 418.400000
5169 14266 8810 1 109.50000 418.400000
5169 14266 9187 1 109.50000 418.400000
7083 14266 8810 1 109.50000 418.400000
7083 14266 9187 1 109.50000 418.400000
8810 14266 9187 1 109.50000 418.400000
343 14267 2170 1 109.50000 418.400000
343 14267 6713 1 109.50000 418.400000
343 14267 9472 1 109.50000 418.400000
2170 14267 6713 1 109.50000 418.400000
2170 14267 9472 1 109.50000 418.400000
6713 14267 9472 1 109.50000 418.400000
1453 14268 9364 1 109.50000 418.400000
1453 14268 9473 1 109.50000 418.400000
1453 14268 9474 1 109.50000 418.400000
9364 14268 9473 1 109.50000 418.400000
9364 14268 9474 1 109.50000 418.400000
9473 14268 9474 1 109.50000 418.400000
6320 14269 9475 1 109.50000 418.400000
6320 14269 9476 1 109.50000 418.400000
6320 14269 9477 1 109.50000 418.400000
9475 14269 9476 1 109.50000 418.400000
9475 14269 9477 1 109.50000 418.400000
9476 14269 9477 1 109.50000 418.400000
308 14270 4996 1 109.50000 418.400000
308 14270 7456 1 109.50000 418.400000
308 14270 9478 1 109.50000 418.400000
4996 14270 7456 1 109.50000 418.400000
4996 14270 9478 1 109.50000 418.400000
7456 14270 9478 1 109.50000 418.400000
621 14271 5628 1 109.50000 418.400000
621 14271 9479 1 109.50000 418.400000
621 14271 9480 1 109.50000 418.400000
5628 14271 9479 1 109.50000 418.400000
5628 14271 9480 1 109.50000 418.400000
9479 14271 9480 1 109.50000 418.400000
2570 14272 5079 1 109.50000 418.400000
2570 14272 6736 1 109.50000 418.400000
2570 14272 9481 1 109.50000 418.400000
5079 14272 6736 1 109.50000 418.400000
5079 14272 9481 1 109.50000 418.400000
6736 14272 9481 1 109.50000 418.400000
6413 14273 6665 1 109.50000 418.400000
6413 14273 7234 1 109.50000 418.400000
6413 14273 9482 1 109.50000 418.400000
6665 14273 7234 1 109.50000 418.400000
6665 14273 9482 1 109.50000 418.400000
7234 14273 9482 1 109.50000 418.400000
1540 14274 2111 1 109.50000 418.400000
1540 14274 7620 1 109.50000 418.400000
1540 14274 9483 1 109.50000 418.400000
2111 14274 7620 1 109.50000 418.400000
2111 14274 9483 1 109.50000 418.400000
7620 14274 9483 1 109.50000 418.400000
485 14275 8616 1 109.50000 418.400000
485 14275 9383 1 109.50000 418.400000
485 14275 9484 1 109.50000 418.400000
8616 14275 9383 1 109.50000 418.400000
8616 14275 9484 1 109.50000 418.400000
9383 14275 9484 1 109.50000 418.400000
3896 14276 3977 1 109.50000 418.400000
3896 14276 8002 1 109.50000 418.400000
3896 14276 9487 1 109.50000 418.400000
3977 14276 8002 1 109.50000 418.400000
3977 14276 9487 1 109.50000 418.400000
8002 14276 9487 1 109.50000 418.400000
1067 14277 8957 1 109.50000 418.400000
1067 14277 9488 1 109.50000 418.400000
1067 14277 9489 1 109.50000 418.400000
8957 14277 9488 1 109.50000 418.400000
8957 14277 9489 1 109.50000 418.400000
9488 14277 9489 1 109.50000 418.400000
152 14278 8297 1 109.50000 418.400000
152 14278 9490 1 109.50000 418.400000
152 14278 9491 1 109.50000 418.400000
8297 14278 9490 1 109.50000 418.400000
8297 14278 9491 1 109.50000 418.400000
9490 14278 9491 1 109.50000 418.400000
1318 14279 8774 1 109.50000 418.400000
1318 14279 8842 1 109.50000 418.400000
1318 14279 9493 1 109.50000 418.400000
8774 14279 8842 1 109.50000 418.400000
8774 14279 9493 1 109.50000 418.400000
8842 14279 9493 1 109.50000 418.400000
5009 14280 9057 1 109.50000 418.400000
5009 14280 9452 1 109.50000 418.400000
5009 14280 9494 1 109.50000 418.400000
9057 14280 9452 1 109.50000 418.400000
9057 14280 9494 1 109.50000 418.400000
9452 14280 9494 1 109.50000 418.400000
2425 14281 3218 1 109.50000 418.400000
2425 14281 7468 1 109.50000 418.400000
2425 14281 9495 1 109.50000 418.400000
3218 14281 7468 1 109.50000 418.400000
3218 14281 9495 1 109.50000 418.400000
7468 14281 9495 1 109.50000 418.400000
1899 14282 7273 1 109.50000 418.400000
1899 14282 7591 1 109.50000 418.400000
1899 14282 9496 1 109.50000 418.400000
7273 14282 7591 1 109.50000 418.400000
7273 14282 9496 1 109.50000 418.400000
7591 14282 9496 1 109.50000 418.400000
7444 14283 8632 1 109.50000 418.400000
7444 14283 9497 1 109.50000 418.400000
7444 14283 9498 1 109.50000 418.400000
8632 14283 9497 1 109.50000 418.400000
8632 14283 9498 1 109.50000 418.400000
9497 14283 9498 1 109.50000 418.400000
3376 14284 6836 1 109.50000 418.400000
3376 14284 6837 1 109.50000 418.400000
3376 14284 9499 1 109.50000 418.400000
6836 14284 6837 1 109.50000 418.400000
6836 14284 9499 1 109.50000 418.400000
6837 14284 9499 1 109.50000 418.400000
5488 14285 9256 1 109.50000 418.400000
5488 14285 9501 1 109.50000 418.400000
5488 14285 9502 1 109.50000 418.400000
9256 14285 9501 1 109.50000 418.400000
9256 14285 9502 1 109.50000 418.400000
9501 14285 9502 1 109.50000 418.400000
2330 14286 2332 1 109.50000 418.400000
2330 14286 6201 1 109.50000 418.400000
2330 14286 11186 1 109.50000 418.400000
2332 14286 6201 1 109.50000 418.400000
2332 14286 11186 1 109.50000 418.400000
6201 14286 11186 1 109.50000 418.400000
2258 14287 6372 1 109.50000 418.400000
2258 14287 7595 1 109.50000 418.400000
2258 14287 9503 1 109.50000 418.400000
6372 14287 7595 1 109.50000 418.400000
6372 14287 9503 1 109.50000 418.400000
7595 14287 9503 1 109.50000 418.400000
2342 14288 2343 1 109.50000 418.400000
2342 14288 4493 1 109.50000 418.400000
2342 14288 9504 1 109.50000 418.400000
2343 14288 4493 1 109.50000 418.400000
2343 14288 9504 1 109.50000 418.400000
4493 14288 9504 1 109.50000 418.400000
1557 14289 4114 1 109.50000 418.400000
1557 14289 9507 1 109.50000 418.400000
1557 14289 9508 1 109.50000 418.400000
4114 14289 9507 1 109.50000 418.400000
4114 14289 9508 1 109.50000 418.400000
9507 14289 9508 1 109.50000 418.400000
4000 14290 5398 1 109.50000 418.400000
4000 14290 7573 1 109.50000 418.400000
4000 14290 9509 1 109.50000 418.400000
5398 14290 7573 1 109.50000 418.400000
5398 14290 9509 1 109.50000 418.400000
7573 14290 9509 1 109.50000 418.400000
4495 14291 4496 1 109.50000 418.400000
4495 14291 9511 1 109.50000 418.400000
4495 14291 9512 1 109.50000 418.400000
4496 14291 9511 1 109.50000 418.400000
4496 14291 9512 1 109.50000 418.400000
9511 14291 9512 1 109.50000 418.400000
3354 14292 3897 1 109.50000 418.400000
3354 14292 8324 1 109.50000 418.400000
3354 14292 8726 1 109.50000 418.400000
3897 14292 8324 1 109.50000 418.400000
3897 14292 8726 1 109.50000 418.400000
8324 14292 8726 1 109.50000 418.400000
9513 14293 9514 1 109.50000 418.400000
9513 14293 9515 1 109.50000 418.400000
9513 14293 9516 1 109.50000 418.400000
9514 14293 9515 1 109.50000 418.400000
9514 14293 9516 1 109.50000 418.400000
9515 14293 9516 1 109.50000 418.400000
2894 14294 2895 1 109.50000 418.400000
2894 14294 5331 1 109.50000 418.400000
2894 14294 6124 1 109.50000 418.400000
2895 14294 5331 1 109.50000 418.400000
2895 14294 6124 1 109.50000 418.400000
5331 14294 6124 1 109.50000 418.400000
3992 14295 6412 1 109.50000 418.400000
3992 14295 7243 1 109.50000 418.400000
3992 14295 9518 1 109.50000 418.400000
6412 14295 7243 1 109.50000 418.400000
6412 14295 9518 1 109.50000 418.400000
7243 14295 9518 1 109.50000 418.400000
578 14296 4001 1 109.50000 418.400000
578 14296 6675 1 109.50000 418.400000
578 14296 9519 1 109.50000 418.400000
4001 14296 6675 1 109.50000 418.400000
4001 14296 9519 1 109.50000 418.400000
6675 14296 9519 1 109.50000 418.400000
2762 14297 4633 1 109.50000 418.400000
2762 14297 7747 1 109.50000 418.400000
2762 14297 9521 1 109.50000 418.400000
4633 14297 7747 1 109.50000 418.400000
4633 14297 9521 1 109.50000 418.400000
7747 14297 9521 1 109.50000 418.400000
3933 14298 4850 1 109.50000 418.400000
3933 14298 5749 1 109.50000 418.400000
3933 14298 9522 1 109.50000 418.400000
4850 14298 5749 1 109.50000 418.400000
4850 14298 9522 1 109.50000 418.400000
5749 14298 9522 1 109.50000 418.400000
294 14299 6669 1 109.50000 418.400000
294 14299 9523 1 109.50000 418.400000
294 14299 9524 1 109.50000 418.400000
6669 14299 9523 1 109.50000 418.400000
6669 14299 9524 1 109.50000 418.400000
9523 14299 9524 1 109.50000 418.400000
4540 14300 8161 1 109.50000 418.400000
4540 14300 8300 1 109.50000 418.400000
4540 14300 9525 1 109.50000 418.400000
8161 14300 8300 1 109.50000 418.400000
8161 14300 9525 1 109.50000 418.400000
8300 14300 9525 1 109.50000 418.400000
3874 14301 9390 1 109.50000 418.400000
3874 14301 9400 1 109.50000 418.400000
3874 14301 9501 1 109.50000 418.400000
9390 14301 9400 1 109.50000 418.400000
9390 14301 9501 1 109.50000 418.400000
9400 14301 9501 1 109.50000 418.400000
1068 14302 1527 1 109.50000 418.400000
1068 14302 9527 1 109.50000 418.400000
1068 14302 9528 1 109.50000 418.400000
1527 14302 9527 1 109.50000 418.400000
1527 14302 9528 1 109.50000 418.400000
9527 14302 9528 1 109.50000 418.400000
8766 14303 9529 1 109.50000 418.400000
8766 14303 9530 1 109.50000 418.400000
8766 14303 9531 1 109.50000 418.400000
9529 14303 9530 1 109.50000 418.400000
9529 14303 9531 1 109.50000 418.400000
9530 14303 9531 1 109.50000 418.400000
1523 14304 7087 1 109.50000 418.400000
1523 14304 9533 1 109.50000 418.400000
1523 14304 9534 1 109.50000 418.400000
7087 14304 9533 1 109.50000 418.400000
7087 14304 9534 1 109.50000 418.400000
9533 14304 9534 1 109.50000 418.400000
589 14305 8784 1 109.50000 418.400000
589 14305 9426 1 109.50000 418.400000
589 14305 9535 1 109.50000 418.400000
8784 14305 9426 1 109.50000 418.400000
8784 14305 9535 1 109.50000 418.400000
9426 14305 9535 1 109.50000 418.400000
648 14306 3438 1 109.50000 418.400000
648 14306 9536 1 109.50000 418.400000
648 14306 9537 1 109.50000 418.400000
3438 14306 9536 1 109.50000 418.400000
3438 14306 9537 1 109.50000 418.400000
9536 14306 9537 1 109.50000 418.400000
3571 14307 7100 1 109.50000 418.400000
3571 14307 9538 1 109.50000 418.400000
3571 14307 9539 1 109.50000 418.400000
7100 14307 9538 1 109.50000 418.400000
7100 14307 9539 1 109.50000 418.400000
9538 14307 9539 1 109.50000 418.400000
6598 14308 7080 1 109.50000 418.400000
6598 14308 7082 1 109.50000 418.400000
6598 14308 9540 1 109.50000 418.400000
7080 14308 7082 1 109.50000 418.400000
7080 14308 9540 1 109.50000 418.400000
7082 14308 9540 1 109.50000 418.400000
9541 14309 9542 1 109.50000 418.400000
9541 14309 9543 1 109.50000 418.400000
9541 14309 9544 1 109.50000 418.400000
9542 14309 9543 1 109.50000 418.400000
9542 14309 9544 1 109.50000 418.400000
9543 14309 9544 1 109.50000 418.400000
3420 14310 3820 1 109.50000 418.400000
3420 14310 7973 1 109.50000 418.400000
3420 14310 9545 1 109.50000 418.400000
3820 14310 7973 1 109.50000 418.400000
3820 14310 9545 1 109.50000 418.400000
7973 14310 9545 1 109.50000 418.400000
962 14311 1012 1 109.50000 418.400000
962 14311 8744 1 109.50000 418.400000
962 14311 9546 1 109.50000 418.400000
1012 14311 8744 1 109.50000 418.400000
1012 14311 9546 1 109.50000 418.400000
8744 14311 9546 1 109.50000 418.400000
6658 14312 6825 1 109.50000 418.400000
6658 14312 7098 1 109.50000 418.400000
6658 14312 8665 1 109.50000 418.400000
6825 14312 7098 1 109.50000 418.400000
6825 14312 8665 1 109.50000 418.400000
7098 14312 8665 1 109.50000 418.400000
2485 14313 4711 1 109.50000 418.400000
2485 14313 9550 1 109.50000 418.400000
2485 14313 9551 1 109.50000 418.400000
4711 14313 9550 1 109.50000 418.400000
4711 14313 9551 1 109.50000 418.400000
9550 14313 9551 1 109.50000 418.400000
8009 14314 9552 1 109.50000 418.400000
8009 14314 9553 1 109.50000 418.400000
8009 14314 9554 1 109.50000 418.400000
9552 14314 9553 1 109.50000 418.400000
9552 14314 9554 1 109.50000 418.400000
9553 14314 9554 1 109.50000 418.400000
5295 14315 9015 1 109.50000 418.400000
5295 14315 9016 1 109.50000 418.400000
5295 14315 9555 1 109.50000 418.400000
9015 14315 9016 1 109.50000 418.400000
9015 14315 9555 1 109.50000 418.400000
9016 14315 9555 1 109.50000 418.400000
944 14316 4758 1 109.50000 418.400000
944 14316 9556 1 109.50000 418.400000
944 14316 9557 1 109.50000 418.400000
4758 14316 9556 1 109.50000 418.400000
4758 14316 9557 1 109.50000 418.400000
9556 14316 9557 1 109.50000 418.400000
6862 14317 7196 1 109.50000 418.400000
6862 14317 9559 1 109.50000 418.400000
6862 14317 9560 1 109.50000 418.400000
7196 14317 9559 1 109.50000 418.400000
7196 14317 9560 1 109.50000 418.400000
9559 14317 9560 1 109.50000 418.400000
2754 14318 2756 1 109.50000 418.400000
2754 14318 9561 1 109.50000 418.400000
2754 14318 9562 1 109.50000 418.400000
2756 14318 9561 1 109.50000 418.400000
2756 14318 9562 1 109.50000 418.400000
9561 14318 9562 1 109.50000 418.400000
3793 14319 6976 1 109.50000 418.400000
3793 14319 8823 1 109.50000 418.400000
3793 14319 9564 1 109.50000 418.400000
6976 14319 8823 1 109.50000 418.400000
6976 14319 9564 1 109.50000 418.400000
8823 14319 9564 1 109.50000 418.400000
7168 14320 9144 1 109.50000 418.400000
7168 14320 9565 1 109.50000 418.400000
7168 14320 9566 1 109.50000 418.400000
9144 14320 9565 1 109.50000 418.400000
9144 14320 9566 1 109.50000 418.400000
9565 14320 9566 1 109.50000 418.400000
594 14321 2960 1 109.50000 418.400000
594 14321 6107 1 109.50000 418.400000
594 14321 9432 1 109.50000 418.400000
2960 14321 6107 1 109.50000 418.400000
2960 14321 9432 1 109.50000 418.400000
6107 14321 9432 1 109.50000 418.400000
8899 14322 9184 1 109.50000 418.400000
8899 14322 9569 1 109.50000 418.400000
8899 14322 9570 1 109.50000 418.400000
9184 14322 9569 1 109.50000 418.400000
9184 14322 9570 1 109.50000 418.400000
9569 14322 9570 1 109.50000 418.400000
2265 14323 5723 1 109.50000 418.400000
2265 14323 8306 1 109.50000 418.400000
2265 14323 9571 1 109.50000 418.400000
5723 14323 8306 1 109.50000 418.400000
5723 14323 9571 1 109.50000 418.400000
8306 14323 9571 1 109.50000 418.400000
2835 14324 6895 1 109.50000 418.400000
2835 14324 8323 1 109.50000 418.400000
2835 14324 9487 1 109.50000 418.400000
6895 14324 8323 1 109.50000 418.400000
6895 14324 9487 1 109.50000 418.400000
8323 14324 9487 1 109.50000 418.400000
1887 14325 8132 1 109.50000 418.400000
1887 14325 9513 1 109.50000 418.400000
1887 14325 9572 1 109.50000 418.400000
8132 14325 9513 1 109.50000 418.400000
8132 14325 9572 1 109.50000 418.400000
9513 14325 9572 1 109.50000 418.400000
1380 14326 6145 1 109.50000 418.400000
1380 14326 8878 1 109.50000 418.400000
1380 14326 9573 1 109.50000 418.400000
6145 14326 8878 1 109.50000 418.400000
6145 14326 9573 1 109.50000 418.400000
8878 14326 9573 1 109.50000 418.400000
6649 14327 8232 1 109.50000 418.400000
6649 14327 9574 1 109.50000 418.400000
6649 14327 9575 1 109.50000 418.400000
8232 14327 9574 1 109.50000 418.400000
8232 14327 9575 1 109.50000 418.400000
9574 14327 9575 1 109.50000 418.400000
3928 14328 4865 1 109.50000 418.400000
3928 14328 9576 1 109.50000 418.400000
3928 14328 9577 1 109.50000 418.400000
4865 14328 9576 1 109.50000 418.400000
4865 14328 9577 1 109.50000 418.400000
9576 14328 9577 1 109.50000 418.400000
1542 14329 1707 1 109.50000 418.400000
1542 14329 6917 1 109.50000 418.400000
1542 14329 9578 1 109.50000 418.400000
1707 14329 6917 1 109.50000 418.400000
1707 14329 9578 1 109.50000 418.400000
6917 14329 9578 1 109.50000 418.400000
1051 14330 3068 1 109.50000 418.400000
1051 14330 3356 1 109.50000 418.400000
1051 14330 9579 1 109.50000 418.400000
3068 14330 3356 1 109.50000 418.400000
3068 14330 9579 1 109.50000 418.400000
3356 14330 9579 1 109.50000 418.400000
3981 14331 6331 1 109.50000 418.400000
3981 14331 7906 1 109.50000 418.400000
3981 14331 9580 1 109.50000 418.400000
6331 14331 7906 1 109.50000 418.400000
6331 14331 9580 1 109.50000 418.400000
7906 14331 9580 1 109.50000 418.400000
3602 14332 9581 1 109.50000 418.400000
3602 14332 9582 1 109.50000 418.400000
3602 14332 9583 1 109.50000 418.400000
9581 14332 9582 1 109.50000 418.400000
9581 14332 9583 1 109.50000 418.400000
9582 14332 9583 1 109.50000 418.400000
2734 14333 3669 1 109.50000 418.400000
2734 14333 7848 1 109.50000 418.400000
2734 14333 8593 1 109.50000 418.400000
3669 14333 7848 1 109.50000 418.400000
3669 14333 8593 1 109.50000 418.400000
7848 14333 8593 1 109.50000 418.400000
2293 14334 6511 1 109.50000 418.400000
2293 14334 8684 1 109.50000 418.400000
2293 14334 9318 1 109.50000 418.400000
6511 14334 8684 1 109.50000 418.400000
6511 14334 9318 1 109.50000 418.400000
8684 14334 9318 1 109.50000 418.400000
917 14335 8568 1 109.50000 418.400000
917 14335 9584 1 109.50000 418.400000
917 14335 9585 1 109.50000 418.400000
8568 14335 9584 1 109.50000 418.400000
8568 14335 9585 1 109.50000 418.400000
9584 14335 9585 1 109.50000 418.400000
2008 14336 2185 1 109.50000 418.400000
2008 14336 2846 1 109.50000 418.400000
2008 14336 9586 1 109.50000 418.400000
2185 14336 2846 1 109.50000 418.400000
2185 14336 9586 1 109.50000 418.400000
2846 14336 9586 1 109.50000 418.400000
166 14337 5065 1 109.50000 418.400000
166 14337 5645 1 109.50000 418.400000
166 14337 9587 1 109.50000 418.400000
5065 14337 5645 1 109.50000 418.400000
5065 14337 9587 1 109.50000 418.400000
5645 14337 9587 1 109.50000 418.400000
9000 14338 9588 1 109.50000 418.400000
9000 14338 9589 1 109.50000 418.400000
9000 14338 9590 1 109.50000 418.400000
9588 14338 9589 1 109.50000 418.400000
9588 14338 9590 1 109.50000 418.400000
9589 14338 9590 1 109.50000 418.400000
968 14339 3429 1 109.50000 418.400000
968 14339 6790 1 109.50000 418.400000
968 14339 9006 1 109.50000 418.400000
3429 14339 6790 1 109.50000 418.400000
3429 14339 9006 1 109.50000 418.400000
6790 14339 9006 1 109.50000 418.400000
1806 14340 5280 1 109.50000 418.400000
1806 14340 9591 1 109.50000 418.400000
1806 14340 9592 1 109.50000 418.400000
5280 14340 9591 1 109.50000 418.400000
5280 14340 9592 1 109.50000 418.400000
9591 14340 9592 1 109.50000 418.400000
7717 14341 8973 1 109.50000 418.400000
7717 14341 9593 1 109.50000 418.400000
7717 14341 9594 1 109.50000 418.400000
8973 14341 9593 1 109.50000 418.400000
8973 14341 9594 1 109.50000 418.400000
9593 14341 9594 1 109.50000 418.400000
3382 14342 8422 1 109.50000 418.400000
3382 14342 9595 1 109.50000 418.400000
3382 14342 9596 1 109.50000 418.400000
8422 14342 9595 1 109.50000 418.400000
8422 14342 9596 1 109.50000 418.400000
9595 14342 9596 1 109.50000 418.400000
1413 14343 8061 1 109.50000 418.400000
1413 14343 9598 1 109.50000 418.400000
1413 14343 9599 1 109.50000 418.400000
8061 14343 9598 1 109.50000 418.400000
8061 14343 9599 1 109.50000 418.400000
9598 14343 9599 1 109.50000 418.400000
109 14344 4885 1 109.50000 418.400000
109 14344 8862 1 109.50000 418.400000
109 14344 9600 1 109.50000 418.400000
4885 14344 8862 1 109.50000 418.400000
4885 14344 9600 1 109.50000 418.400000
8862 14344 9600 1 109.50000 418.400000
3417 14345 7460 1 109.50000 418.400000
3417 14345 9034 1 109.50000 418.400000
3417 14345 9603 1 109.50000 418.400000
7460 14345 9034 1 109.50000 418.400000
7460 14345 9603 1 109.50000 418.400000
9034 14345 9603 1 109.50000 418.400000
1464 14346 7570 1 109.50000 418.400000
1464 14346 9604 1 109.50000 418.400000
1464 14346 9605 1 109.50000 418.400000
7570 14346 9604 1 109.50000 418.400000
7570 14346 9605 1 109.50000 418.400000
9604 14346 9605 1 109.50000 418.400000
4408 14347 7875 1 109.50000 418.400000
4408 14347 9607 1 109.50000 418.400000
4408 14347 9608 1 109.50000 418.400000
7875 14347 9607 1 109.50000 418.400000
7875 14347 9608 1 109.50000 418.400000
9607 14347 9608 1 109.50000 418.400000
9609 14348 9969 1 109.50000 418.400000
9609 14348 11054 1 109.50000 418.400000
9609 14348 11055 1 109.50000 418.400000
9969 14348 11054 1 109.50000 418.400000
9969 14348 11055 1 109.50000 418.400000
11054 14348 11055 1 109.50000 418.400000
3454 14349 8792 1 109.50000 418.400000
3454 14349 9612 1 109.50000 418.400000
3454 14349 9613 1 109.50000 418.400000
8792 14349 9612 1 109.50000 418.400000
8792 14349 9613 1 109.50000 418.400000
9612 14349 9613 1 109.50000 418.400000
1646 14350 4088 1 109.50000 418.400000
1646 14350 9614 1 109.50000 418.400000
1646 14350 9615 1 109.50000 418.400000
4088 14350 9614 1 109.50000 418.400000
4088 14350 9615 1 109.50000 418.400000
9614 14350 9615 1 109.50000 418.400000
5764 14351 6274 1 109.50000 418.400000
5764 14351 6275 1 109.50000 418.400000
5764 14351 9511 1 109.50000 418.400000
6274 14351 6275 1 109.50000 418.400000
6274 14351 9511 1 109.50000 418.400000
6275 14351 9511 1 109.50000 418.400000
4581 14352 8521 1 109.50000 418.400000
4581 14352 9616 1 109.50000 418.400000
4581 14352 9617 1 109.50000 418.400000
8521 14352 9616 1 109.50000 418.400000
8521 14352 9617 1 109.50000 418.400000
9616 14352 9617 1 109.50000 418.400000
714 14353 715 1 109.50000 418.400000
714 14353 8692 1 109.50000 418.400000
714 14353 9618 1 109.50000 418.400000
715 14353 8692 1 109.50000 418.400000
715 14353 9618 1 109.50000 418.400000
8692 14353 9618 1 109.50000 418.400000
506 14354 2172 1 109.50000 418.400000
506 14354 2718 1 109.50000 418.400000
506 14354 9619 1 109.50000 418.400000
2172 14354 2718 1 109.50000 418.400000
2172 14354 9619 1 109.50000 418.400000
2718 14354 9619 1 109.50000 418.400000
81 14355 1307 1 109.50000 418.400000
81 14355 8914 1 109.50000 418.400000
81 14355 9620 1 109.50000 418.400000
1307 14355 8914 1 109.50000 418.400000
1307 14355 9620 1 109.50000 418.400000
8914 14355 9620 1 109.50000 418.400000
2922 14356 7019 1 109.50000 418.400000
2922 14356 7204 1 109.50000 418.400000
2922 14356 7534 1 109.50000 418.400000
7019 14356 7204 1 109.50000 418.400000
7019 14356 7534 1 109.50000 418.400000
7204 14356 7534 1 109.50000 418.400000
583 14357 3089 1 109.50000 418.400000
583 14357 3188 1 109.50000 418.400000
583 14357 5135 1 109.50000 418.400000
3089 14357 3188 1 109.50000 418.400000
3089 14357 5135 1 109.50000 418.400000
3188 14357 5135 1 109.50000 418.400000
4068 14358 7124 1 109.50000 418.400000
4068 14358 7126 1 109.50000 418.400000
4068 14358 7374 1 109.50000 418.400000
7124 14358 7126 1 109.50000 418.400000
7124 14358 7374 1 109.50000 418.400000
7126 14358 7374 1 109.50000 418.400000
1032 14359 9623 1 109.50000 418.400000
1032 14359 9624 1 109.50000 418.400000
1032 14359 9625 1 109.50000 418.400000
9623 14359 9624 1 109.50000 418.400000
9623 14359 9625 1 109.50000 418.400000
9624 14359 9625 1 109.50000 418.400000
8215 14360 8856 1 109.50000 418.400000
8215 14360 8910 1 109.50000 418.400000
8215 14360 9137 1 109.50000 418.400000
8856 14360 8910 1 109.50000 418.400000
8856 14360 9137 1 109.50000 418.400000
8910 14360 9137 1 109.50000 418.400000
9626 14361 9627 1 109.50000 418.400000
9626 14361 9628 1 109.50000 418.400000
9626 14361 9629 1 109.50000 418.400000
9627 14361 9628 1 109.50000 418.400000
9627 14361 9629 1 109.50000 418.400000
9628 14361 9629 1 109.50000 418.400000
1714 14362 6756 1 109.50000 418.400000
1714 14362 9630 1 109.50000 418.400000
1714 14362 9631 1 109.50000 418.400000
6756 14362 9630 1 109.50000 418.400000
6756 14362 9631 1 109.50000 418.400000
9630 14362 9631 1 109.50000 418.400000
2755 14363 9632 1 109.50000 418.400000
2755 14363 9634 1 109.50000 418.400000
2755 14363 10819 1 109.50000 418.400000
9632 14363 9634 1 109.50000 418.400000
9632 14363 10819 1 109.50000 418.400000
9634 14363 10819 1 109.50000 418.400000
977 14364 2450 1 109.50000 418.400000
977 14364 9635 1 109.50000 418.400000
977 14364 9636 1 109.50000 418.400000
2450 14364 9635 1 109.50000 418.400000
2450 14364 9636 1 109.50000 418.400000
9635 14364 9636 1 109.50000 418.400000
8181 14365 8463 1 109.50000 418.400000
8181 14365 9454 1 109.50000 418.400000
8181 14365 9637 1 109.50000 418.400000
8463 14365 9454 1 109.50000 418.400000
8463 14365 9637 1 109.50000 418.400000
9454 14365 9637 1 109.50000 418.400000
8997 14366 9235 1 109.50000 418.400000
8997 14366 9638 1 109.50000 418.400000
8997 14366 9639 1 109.50000 418.400000
9235 14366 9638 1 109.50000 418.400000
9235 14366 9639 1 109.50000 418.400000
9638 14366 9639 1 109.50000 418.400000
772 14367 7260 1 109.50000 418.400000
772 14367 7850 1 109.50000 418.400000
772 14367 9640 1 109.50000 418.400000
7260 14367 7850 1 109.50000 418.400000
7260 14367 9640 1 109.50000 418.400000
7850 14367 9640 1 109.50000 418.400000
3435 14368 5990 1 109.50000 418.400000
3435 14368 8703 1 109.50000 418.400000
3435 14368 9641 1 109.50000 418.400000
5990 14368 8703 1 109.50000 418.400000
5990 14368 9641 1 109.50000 418.400000
8703 14368 9641 1 109.50000 418.400000
9140 14369 9288 1 109.50000 418.400000
9140 14369 9642 1 109.50000 418.400000
9140 14369 9643 1 109.50000 418.400000
9288 14369 9642 1 109.50000 418.400000
9288 14369 9643 1 109.50000 418.400000
9642 14369 9643 1 109.50000 418.400000
3913 14370 7102 1 109.50000 418.400000
3913 14370 9646 1 109.50000 418.400000
3913 14370 9647 1 109.50000 418.400000
7102 14370 9646 1 109.50000 418.400000
7102 14370 9647 1 109.50000 418.400000
9646 14370 9647 1 109.50000 418.400000
3458 14371 4019 1 109.50000 418.400000
3458 14371 4390 1 109.50000 418.400000
3458 14371 5372 1 109.50000 418.400000
4019 14371 4390 1 109.50000 418.400000
4019 14371 5372 1 109.50000 418.400000
4390 14371 5372 1 109.50000 418.400000
6017 14372 9649 1 109.50000 418.400000
6017 14372 9650 1 109.50000 418.400000
6017 14372 9651 1 109.50000 418.400000
9649 14372 9650 1 109.50000 418.400000
9649 14372 9651 1 109.50000 418.400000
9650 14372 9651 1 109.50000 418.400000
84 14373 1388 1 109.50000 418.400000
84 14373 4400 1 109.50000 418.400000
84 14373 9652 1 109.50000 418.400000
1388 14373 4400 1 109.50000 418.400000
1388 14373 9652 1 109.50000 418.400000
4400 14373 9652 1 109.50000 418.400000
974 14374 4593 1 109.50000 418.400000
974 14374 6671 1 109.50000 418.400000
974 14374 9529 1 109.50000 418.400000
4593 14374 6671 1 109.50000 418.400000
4593 14374 9529 1 109.50000 418.400000
6671 14374 9529 1 109.50000 418.400000
905 14375 1534 1 109.50000 418.400000
905 14375 1719 1 109.50000 418.400000
905 14375 8768 1 109.50000 418.400000
1534 14375 1719 1 109.50000 418.400000
1534 14375 8768 1 109.50000 418.400000
1719 14375 8768 1 109.50000 418.400000
710 14376 3550 1 109.50000 418.400000
710 14376 8404 1 109.50000 418.400000
710 14376 9656 1 109.50000 418.400000
3550 14376 8404 1 109.50000 418.400000
3550 14376 9656 1 109.50000 418.400000
8404 14376 9656 1 109.50000 418.400000
605 14377 2683 1 109.50000 418.400000
605 14377 9657 1 109.50000 418.400000
605 14377 10521 1 109.50000 418.400000
2683 14377 9657 1 109.50000 418.400000
2683 14377 10521 1 109.50000 418.400000
9657 14377 10521 1 109.50000 418.400000
9521 14378 9658 1 109.50000 418.400000
9521 14378 9659 1 109.50000 418.400000
9521 14378 9660 1 109.50000 418.400000
9658 14378 9659 1 109.50000 418.400000
9658 14378 9660 1 109.50000 418.400000
9659 14378 9660 1 109.50000 418.400000
3769 14379 9661 1 109.50000 418.400000
3769 14379 9662 1 109.50000 418.400000
3769 14379 9663 1 109.50000 418.400000
9661 14379 9662 1 109.50000 418.400000
9661 14379 9663 1 109.50000 418.400000
9662 14379 9663 1 109.50000 418.400000
1629 14380 5897 1 109.50000 418.400000
1629 14380 9473 1 109.50000 418.400000
1629 14380 9664 1 109.50000 418.400000
5897 14380 9473 1 109.50000 418.400000
5897 14380 9664 1 109.50000 418.400000
9473 14380 9664 1 109.50000 418.400000
4808 14381 7485 1 109.50000 418.400000
4808 14381 9665 1 109.50000 418.400000
4808 14381 9666 1 109.50000 418.400000
7485 14381 9665 1 109.50000 418.400000
7485 14381 9666 1 109.50000 418.400000
9665 14381 9666 1 109.50000 418.400000
9667 14382 9668 1 109.50000 418.400000
9667 14382 9669 1 109.50000 418.400000
9667 14382 9670 1 109.50000 418.400000
9668 14382 9669 1 109.50000 418.400000
9668 14382 9670 1 109.50000 418.400000
9669 14382 9670 1 109.50000 418.400000
1745 14383 1975 1 109.50000 418.400000
1745 14383 8184 1 109.50000 418.400000
1745 14383 9671 1 109.50000 418.400000
1975 14383 8184 1 109.50000 418.400000
1975 14383 9671 1 109.50000 418.400000
8184 14383 9671 1 109.50000 418.400000
5152 14384 6367 1 109.50000 418.400000
5152 14384 7976 1 109.50000 418.400000
5152 14384 9674 1 109.50000 418.400000
6367 14384 7976 1 109.50000 418.400000
6367 14384 9674 1 109.50000 418.400000
7976 14384 9674 1 109.50000 418.400000
154 14385 9223 1 109.50000 418.400000
154 14385 9401 1 109.50000 418.400000
154 14385 9675 1 109.50000 418.400000
9223 14385 9401 1 109.50000 418.400000
9223 14385 9675 1 109.50000 418.400000
9401 14385 9675 1 109.50000 418.400000
768 14386 7118 1 109.50000 418.400000
768 14386 8137 1 109.50000 418.400000
768 14386 9676 1 109.50000 418.400000
7118 14386 8137 1 109.50000 418.400000
7118 14386 9676 1 109.50000 418.400000
8137 14386 9676 1 109.50000 418.400000
4586 14387 9677 1 109.50000 418.400000
4586 14387 9678 1 109.50000 418.400000
4586 14387 9679 1 109.50000 418.400000
9677 14387 9678 1 109.50000 418.400000
9677 14387 9679 1 109.50000 418.400000
9678 14387 9679 1 109.50000 418.400000
8465 14388 9680 1 109.50000 418.400000
8465 14388 9681 1 109.50000 418.400000
8465 14388 9682 1 109.50000 418.400000
9680 14388 9681 1 109.50000 418.400000
9680 14388 9682 1 109.50000 418.400000
9681 14388 9682 1 109.50000 418.400000
7632 14389 9131 1 109.50000 418.400000
7632 14389 9206 1 109.50000 418.400000
7632 14389 9684 1 109.50000 418.400000
9131 14389 9206 1 109.50000 418.400000
9131 14389 9684 1 109.50000 418.400000
9206 14389 9684 1 109.50000 418.400000
7139 14390 7146 1 109.50000 418.400000
7139 14390 9685 1 109.50000 418.400000
7139 14390 9686 1 109.50000 418.400000
7146 14390 9685 1 109.50000 418.400000
7146 14390 9686 1 109.50000 418.400000
9685 14390 9686 1 109.50000 418.400000
194 14391 3825 1 109.50000 418.400000
194 14391 3959 1 109.50000 418.400000
194 14391 9688 1 109.50000 418.400000
3825 14391 3959 1 109.50000 418.400000
3825 14391 9688 1 109.50000 418.400000
3959 14391 9688 1 109.50000 418.400000
5836 14392 5837 1 109.50000 418.400000
5836 14392 5838 1 109.50000 418.400000
5836 14392 9689 1 109.50000 418.400000
5837 14392 5838 1 109.50000 418.400000
5837 14392 9689 1 109.50000 418.400000
5838 14392 9689 1 109.50000 418.400000
1578 14393 2841 1 109.50000 418.400000
1578 14393 4140 1 109.50000 418.400000
1578 14393 9692 1 109.50000 418.400000
2841 14393 4140 1 109.50000 418.400000
2841 14393 9692 1 109.50000 418.400000
4140 14393 9692 1 109.50000 418.400000
5606 14394 5648 1 109.50000 418.400000
5606 14394 9299 1 109.50000 418.400000
5606 14394 9693 1 109.50000 418.400000
5648 14394 9299 1 109.50000 418.400000
5648 14394 9693 1 109.50000 418.400000
9299 14394 9693 1 109.50000 418.400000
5102 14395 9694 1 109.50000 418.400000
5102 14395 9695 1 109.50000 418.400000
5102 14395 10680 1 109.50000 418.400000
9694 14395 9695 1 109.50000 418.400000
9694 14395 10680 1 109.50000 418.400000
9695 14395 10680 1 109.50000 418.400000
846 14396 8240 1 109.50000 418.400000
846 14396 9696 1 109.50000 418.400000
846 14396 9697 1 109.50000 418.400000
8240 14396 9696 1 109.50000 418.400000
8240 14396 9697 1 109.50000 418.400000
9696 14396 9697 1 109.50000 418.400000
2458 14397 8915 1 109.50000 418.400000
2458 14397 9030 1 109.50000 418.400000
2458 14397 9698 1 109.50000 418.400000
8915 14397 9030 1 109.50000 418.400000
8915 14397 9698 1 109.50000 418.400000
9030 14397 9698 1 109.50000 418.400000
4509 14398 9699 1 109.50000 418.400000
4509 14398 9700 1 109.50000 418.400000
4509 14398 9701 1 109.50000 418.400000
9699 14398 9700 1 109.50000 418.400000
9699 14398 9701 1 109.50000 418.400000
9700 14398 9701 1 109.50000 418.400000
2361 14399 9702 1 109.50000 418.400000
2361 14399 9703 1 109.50000 418.400000
2361 14399 9704 1 109.50000 418.400000
9702 14399 9703 1 109.50000 418.400000
9702 14399 9704 1 109.50000 418.400000
9703 14399 9704 1 109.50000 418.400000
329 14400 8502 1 109.50000 418.400000
329 14400 9705 1 109.50000 418.400000
329 14400 9706 1 109.50000 418.400000
8502 14400 9705 1 109.50000 418.400000
8502 14400 9706 1 109.50000 418.400000
9705 14400 9706 1 109.50000 418.400000
7628 14401 7945 1 109.50000 418.400000
7628 14401 9708 1 109.50000 418.400000
7628 14401 10467 1 109.50000 418.400000
7945 14401 9708 1 109.50000 418.400000
7945 14401 10467 1 109.50000 418.400000
9708 14401 10467 1 109.50000 418.400000
3831 14402 6470 1 109.50000 418.400000
3831 14402 8834 1 109.50000 418.400000
3831 14402 9709 1 109.50000 418.400000
6470 14402 8834 1 109.50000 418.400000
6470 14402 9709 1 109.50000 418.400000
8834 14402 9709 1 109.50000 418.400000
3951 14403 9494 1 109.50000 418.400000
3951 14403 9710 1 109.50000 418.400000
3951 14403 9711 1 109.50000 418.400000
9494 14403 9710 1 109.50000 418.400000
9494 14403 9711 1 109.50000 418.400000
9710 14403 9711 1 109.50000 418.400000
7659 14404 9712 1 109.50000 418.400000
7659 14404 9713 1 109.50000 418.400000
7659 14404 10259 1 109.50000 418.400000
9712 14404 9713 1 109.50000 418.400000
9712 14404 10259 1 109.50000 418.400000
9713 14404 10259 1 109.50000 418.400000
5728 14405 9163 1 109.50000 418.400000
5728 14405 9714 1 109.50000 418.400000
5728 14405 9715 1 109.50000 418.400000
9163 14405 9714 1 109.50000 418.400000
9163 14405 9715 1 109.50000 418.400000
9714 14405 9715 1 109.50000 418.400000
3094 14406 5099 1 109.50000 418.400000
3094 14406 9716 1 109.50000 418.400000
3094 14406 9717 1 109.50000 418.400000
5099 14406 9716 1 109.50000 418.400000
5099 14406 9717 1 109.50000 418.400000
9716 14406 9717 1 109.50000 418.400000
844 14407 6717 1 109.50000 418.400000
844 14407 8526 1 109.50000 418.400000
844 14407 9718 1 109.50000 418.400000
6717 14407 8526 1 109.50000 418.400000
6717 14407 9718 1 109.50000 418.400000
8526 14407 9718 1 109.50000 418.400000
6226 14408 9719 1 109.50000 418.400000
6226 14408 9720 1 109.50000 418.400000
6226 14408 9721 1 109.50000 418.400000
9719 14408 9720 1 109.50000 418.400000
9719 14408 9721 1 109.50000 418.400000
9720 14408 9721 1 109.50000 418.400000
3104 14409 4081 1 109.50000 418.400000
3104 14409 7579 1 109.50000 418.400000
3104 14409 9298 1 109.50000 418.400000
4081 14409 7579 1 109.50000 418.400000
4081 14409 9298 1 109.50000 418.400000
7579 14409 9298 1 109.50000 418.400000
7133 14410 7899 1 109.50000 418.400000
7133 14410 9722 1 109.50000 418.400000
7133 14410 9723 1 109.50000 418.400000
7899 14410 9722 1 109.50000 418.400000
7899 14410 9723 1 109.50000 418.400000
9722 14410 9723 1 109.50000 418.400000
7707 14411 7721 1 109.50000 418.400000
7707 14411 7767 1 109.50000 418.400000
7707 14411 9724 1 109.50000 418.400000
7721 14411 7767 1 109.50000 418.400000
7721 14411 9724 1 109.50000 418.400000
7767 14411 9724 1 109.50000 418.400000
9037 14412 9437 1 109.50000 418.400000
9037 14412 9718 1 109.50000 418.400000
9037 14412 9725 1 109.50000 418.400000
9437 14412 9718 1 109.50000 418.400000
9437 14412 9725 1 109.50000 418.400000
9718 14412 9725 1 109.50000 418.400000
3323 14413 5935 1 109.50000 418.400000
3323 14413 8638 1 109.50000 418.400000
3323 14413 9726 1 109.50000 418.400000
5935 14413 8638 1 109.50000 418.400000
5935 14413 9726 1 109.50000 418.400000
8638 14413 9726 1 109.50000 418.400000
4261 14414 7346 1 109.50000 418.400000
4261 14414 9059 1 109.50000 418.400000
4261 14414 9728 1 109.50000 418.400000
7346 14414 9059 1 109.50000 418.400000
7346 14414 9728 1 109.50000 418.400000
9059 14414 9728 1 109.50000 418.400000
3465 14415 6839 1 109.50000 418.400000
3465 14415 9596 1 109.50000 418.400000
3465 14415 9730 1 109.50000 418.400000
6839 14415 9596 1 109.50000 418.400000
6839 14415 9730 1 109.50000 418.400000
9596 14415 9730 1 109.50000 418.400000
5905 14416 6873 1 109.50000 418.400000
5905 14416 9260 1 109.50000 418.400000
5905 14416 9702 1 109.50000 418.400000
6873 14416 9260 1 109.50000 418.400000
6873 14416 9702 1 109.50000 418.400000
9260 14416 9702 1 109.50000 418.400000
4121 14417 8086 1 109.50000 418.400000
4121 14417 8553 1 109.50000 418.400000
4121 14417 9731 1 109.50000 418.400000
8086 14417 8553 1 109.50000 418.400000
8086 14417 9731 1 109.50000 418.400000
8553 14417 9731 1 109.50000 418.400000
9732 14418 9733 1 109.50000 418.400000
9732 14418 9734 1 109.50000 418.400000
9732 14418 9735 1 109.50000 418.400000
9733 14418 9734 1 109.50000 418.400000
9733 14418 9735 1 109.50000 418.400000
9734 14418 9735 1 109.50000 418.400000
9351 14419 9736 1 109.50000 418.400000
9351 14419 9737 1 109.50000 418.400000
9351 14419 9738 1 109.50000 418.400000
9736 14419 9737 1 109.50000 418.400000
9736 14419 9738 1 109.50000 418.400000
9737 14419 9738 1 109.50000 418.400000
4134 14420 7739 1 109.50000 418.400000
4134 14420 8529 1 109.50000 418.400000
4134 14420 9739 1 109.50000 418.400000
7739 14420 8529 1 109.50000 418.400000
7739 14420 9739 1 109.50000 418.400000
8529 14420 9739 1 109.50000 418.400000
4177 14421 5759 1 109.50000 418.400000
4177 14421 5760 1 109.50000 418.400000
4177 14421 6978 1 109.50000 418.400000
5759 14421 5760 1 109.50000 418.400000
5759 14421 6978 1 109.50000 418.400000
5760 14421 6978 1 109.50000 418.400000
1236 14422 1554 1 109.50000 418.400000
1236 14422 6389 1 109.50000 418.400000
1236 14422 9741 1 109.50000 418.400000
1554 14422 6389 1 109.50000 418.400000
1554 14422 9741 1 109.50000 418.400000
6389 14422 9741 1 109.50000 418.400000
1681 14423 7596 1 109.50000 418.400000
1681 14423 9742 1 109.50000 418.400000
1681 14423 9743 1 109.50000 418.400000
7596 14423 9742 1 109.50000 418.400000
7596 14423 9743 1 109.50000 418.400000
9742 14423 9743 1 109.50000 418.400000
1155 14424 8974 1 109.50000 418.400000
1155 14424 9744 1 109.50000 418.400000
1155 14424 9745 1 109.50000 418.400000
8974 14424 9744 1 109.50000 418.400000
8974 14424 9745 1 109.50000 418.400000
9744 14424 9745 1 109.50000 418.400000
3348 14425 9159 1 109.50000 418.400000
3348 14425 9746 1 109.50000 418.400000
3348 14425 9747 1 109.50000 418.400000
9159 14425 9746 1 109.50000 418.400000
9159 14425 9747 1 109.50000 418.400000
9746 14425 9747 1 109.50000 418.400000
1417 14426 6270 1 109.50000 418.400000
1417 14426 7238 1 109.50000 418.400000
1417 14426 9748 1 109.50000 418.400000
6270 14426 7238 1 109.50000 418.400000
6270 14426 9748 1 109.50000 418.400000
7238 14426 9748 1 109.50000 418.400000
7686 14427 9548 1 109.50000 418.400000
7686 14427 9749 1 109.50000 418.400000
7686 14427 9750 1 109.50000 418.400000
9548 14427 9749 1 109.50000 418.400000
9548 14427 9750 1 109.50000 418.400000
9749 14427 9750 1 109.50000 418.400000
4052 14428 9751 1 109.50000 418.400000
4052 14428 9752 1 109.50000 418.400000
4052 14428 9753 1 109.50000 418.400000
9751 14428 9752 1 109.50000 418.400000
9751 14428 9753 1 109.50000 418.400000
9752 14428 9753 1 109.50000 418.400000
1790 14429 4943 1 109.50000 418.400000
1790 14429 7891 1 109.50000 418.400000
1790 14429 9754 1 109.50000 418.400000
4943 14429 7891 1 109.50000 418.400000
4943 14429 9754 1 109.50000 418.400000
7891 14429 9754 1 109.50000 418.400000
6590 14430 9246 1 109.50000 418.400000
6590 14430 9755 1 109.50000 418.400000
6590 14430 9756 1 109.50000 418.400000
9246 14430 9755 1 109.50000 418.400000
9246 14430 9756 1 109.50000 418.400000
9755 14430 9756 1 109.50000 418.400000
1090 14431 7562 1 109.50000 418.400000
1090 14431 9310 1 109.50000 418.400000
1090 14431 9540 1 109.50000 418.400000
7562 14431 9310 1 109.50000 418.400000
7562 14431 9540 1 109.50000 418.400000
9310 14431 9540 1 109.50000 418.400000
5707 14432 7296 1 109.50000 418.400000
5707 14432 7462 1 109.50000 418.400000
5707 14432 9251 1 109.50000 418.400000
7296 14432 7462 1 109.50000 418.400000
7296 14432 9251 1 109.50000 418.400000
7462 14432 9251 1 109.50000 418.400000
2261 14433 4329 1 109.50000 418.400000
2261 14433 7009 1 109.50000 418.400000
2261 14433 8618 1 109.50000 418.400000
4329 14433 7009 1 109.50000 418.400000
4329 14433 8618 1 109.50000 418.400000
7009 14433 8618 1 109.50000 418.400000
275 14434 6663 1 109.50000 418.400000
275 14434 9757 1 109.50000 418.400000
275 14434 9758 1 109.50000 418.400000
6663 14434 9757 1 109.50000 418.400000
6663 14434 9758 1 109.50000 418.400000
9757 14434 9758 1 109.50000 418.400000
3169 14435 7416 1 109.50000 418.400000
3169 14435 7693 1 109.50000 418.400000
3169 14435 7695 1 109.50000 418.400000
7416 14435 7693 1 109.50000 418.400000
7416 14435 7695 1 109.50000 418.400000
7693 14435 7695 1 109.50000 418.400000
1999 14436 7985 1 109.50000 418.400000
1999 14436 8283 1 109.50000 418.400000
1999 14436 9760 1 109.50000 418.400000
7985 14436 8283 1 109.50000 418.400000
7985 14436 9760 1 109.50000 418.400000
8283 14436 9760 1 109.50000 418.400000
1326 14437 2891 1 109.50000 418.400000
1326 14437 9598 1 109.50000 418.400000
1326 14437 9761 1 109.50000 418.400000
2891 14437 9598 1 109.50000 418.400000
2891 14437 9761 1 109.50000 418.400000
9598 14437 9761 1 109.50000 418.400000
448 14438 1622 1 109.50000 418.400000
448 14438 9762 1 109.50000 418.400000
448 14438 9763 1 109.50000 418.400000
1622 14438 9762 1 109.50000 418.400000
1622 14438 9763 1 109.50000 418.400000
9762 14438 9763 1 109.50000 418.400000
4813 14439 8219 1 109.50000 418.400000
4813 14439 9241 1 109.50000 418.400000
4813 14439 9766 1 109.50000 418.400000
8219 14439 9241 1 109.50000 418.400000
8219 14439 9766 1 109.50000 418.400000
9241 14439 9766 1 109.50000 418.400000
2363 14440 9519 1 109.50000 418.400000
2363 14440 9767 1 109.50000 418.400000
2363 14440 9768 1 109.50000 418.400000
9519 14440 9767 1 109.50000 418.400000
9519 14440 9768 1 109.50000 418.400000
9767 14440 9768 1 109.50000 418.400000
4323 14441 9629 1 109.50000 418.400000
4323 14441 9769 1 109.50000 418.400000
4323 14441 9770 1 109.50000 418.400000
9629 14441 9769 1 109.50000 418.400000
9629 14441 9770 1 109.50000 418.400000
9769 14441 9770 1 109.50000 418.400000
6613 14442 6894 1 109.50000 418.400000
6613 14442 9771 1 109.50000 418.400000
6613 14442 9772 1 109.50000 418.400000
6894 14442 9771 1 109.50000 418.400000
6894 14442 9772 1 109.50000 418.400000
9771 14442 9772 1 109.50000 418.400000
1927 14443 8235 1 109.50000 418.400000
1927 14443 8686 1 109.50000 418.400000
1927 14443 9773 1 109.50000 418.400000
8235 14443 8686 1 109.50000 418.400000
8235 14443 9773 1 109.50000 418.400000
8686 14443 9773 1 109.50000 418.400000
4738 14444 9755 1 109.50000 418.400000
4738 14444 9774 1 109.50000 418.400000
4738 14444 11193 1 109.50000 418.400000
9755 14444 9774 1 109.50000 418.400000
9755 14444 11193 1 109.50000 418.400000
9774 14444 11193 1 109.50000 418.400000
574 14445 3548 1 109.50000 418.400000
574 14445 5478 1 109.50000 418.400000
574 14445 9775 1 109.50000 418.400000
3548 14445 5478 1 109.50000 418.400000
3548 14445 9775 1 109.50000 418.400000
5478 14445 9775 1 109.50000 418.400000
6871 14446 9379 1 109.50000 418.400000
6871 14446 9530 1 109.50000 418.400000
6871 14446 9776 1 109.50000 418.400000
9379 14446 9530 1 109.50000 418.400000
9379 14446 9776 1 109.50000 418.400000
9530 14446 9776 1 109.50000 418.400000
2596 14447 8430 1 109.50000 418.400000
2596 14447 9778 1 109.50000 418.400000
2596 14447 9779 1 109.50000 418.400000
8430 14447 9778 1 109.50000 418.400000
8430 14447 9779 1 109.50000 418.400000
9778 14447 9779 1 109.50000 418.400000
6902 14448 6962 1 109.50000 418.400000
6902 14448 7736 1 109.50000 418.400000
6902 14448 9780 1 109.50000 418.400000
6962 14448 7736 1 109.50000 418.400000
6962 14448 9780 1 109.50000 418.400000
7736 14448 9780 1 109.50000 418.400000
5502 14449 7941 1 109.50000 418.400000
5502 14449 9781 1 109.50000 418.400000
5502 14449 9782 1 109.50000 418.400000
7941 14449 9781 1 109.50000 418.400000
7941 14449 9782 1 109.50000 418.400000
9781 14449 9782 1 109.50000 418.400000
344 14450 9783 1 109.50000 418.400000
344 14450 9784 1 109.50000 418.400000
344 14450 9785 1 109.50000 418.400000
9783 14450 9784 1 109.50000 418.400000
9783 14450 9785 1 109.50000 418.400000
9784 14450 9785 1 109.50000 418.400000
750 14451 3381 1 109.50000 418.400000
750 14451 9044 1 109.50000 418.400000
750 14451 9786 1 109.50000 418.400000
3381 14451 9044 1 109.50000 418.400000
3381 14451 9786 1 109.50000 418.400000
9044 14451 9786 1 109.50000 418.400000
3963 14452 7838 1 109.50000 418.400000
3963 14452 9787 1 109.50000 418.400000
3963 14452 9788 1 109.50000 418.400000
7838 14452 9787 1 109.50000 418.400000
7838 14452 9788 1 109.50000 418.400000
9787 14452 9788 1 109.50000 418.400000
2336 14453 5239 1 109.50000 418.400000
2336 14453 6607 1 109.50000 418.400000
2336 14453 9789 1 109.50000 418.400000
5239 14453 6607 1 109.50000 418.400000
5239 14453 9789 1 109.50000 418.400000
6607 14453 9789 1 109.50000 418.400000
8000 14454 9790 1 109.50000 418.400000
8000 14454 9791 1 109.50000 418.400000
8000 14454 9792 1 109.50000 418.400000
9790 14454 9791 1 109.50000 418.400000
9790 14454 9792 1 109.50000 418.400000
9791 14454 9792 1 109.50000 418.400000
3402 14455 5211 1 109.50000 418.400000
3402 14455 8919 1 109.50000 418.400000
3402 14455 9237 1 109.50000 418.400000
5211 14455 8919 1 109.50000 418.400000
5211 14455 9237 1 109.50000 418.400000
8919 14455 9237 1 109.50000 418.400000
3809 14456 8912 1 109.50000 418.400000
3809 14456 9761 1 109.50000 418.400000
3809 14456 9793 1 109.50000 418.400000
8912 14456 9761 1 109.50000 418.400000
8912 14456 9793 1 109.50000 418.400000
9761 14456 9793 1 109.50000 418.400000
1386 14457 4055 1 109.50000 418.400000
1386 14457 9794 1 109.50000 418.400000
1386 14457 9795 1 109.50000 418.400000
4055 14457 9794 1 109.50000 418.400000
4055 14457 9795 1 109.50000 418.400000
9794 14457 9795 1 109.50000 418.400000
3668 14458 7846 1 109.50000 418.400000
3668 14458 9796 1 109.50000 418.400000
3668 14458 9797 1 109.50000 418.400000
7846 14458 9796 1 109.50000 418.400000
7846 14458 9797 1 109.50000 418.400000
9796 14458 9797 1 109.50000 418.400000
5642 14459 8702 1 109.50000 418.400000
5642 14459 9798 1 109.50000 418.400000
5642 14459 9799 1 109.50000 418.400000
8702 14459 9798 1 109.50000 418.400000
8702 14459 9799 1 109.50000 418.400000
9798 14459 9799 1 109.50000 418.400000
2322 14460 6794 1 109.50000 418.400000
2322 14460 9370 1 109.50000 418.400000
2322 14460 9428 1 109.50000 418.400000
6794 14460 9370 1 109.50000 418.400000
6794 14460 9428 1 109.50000 418.400000
9370 14460 9428 1 109.50000 418.400000
3696 14461 8678 1 109.50000 418.400000
3696 14461 9800 1 109.50000 418.400000
3696 14461 9801 1 109.50000 418.400000
8678 14461 9800 1 109.50000 418.400000
8678 14461 9801 1 109.50000 418.400000
9800 14461 9801 1 109.50000 418.400000
6054 14462 9764 1 109.50000 418.400000
6054 14462 9802 1 109.50000 418.400000
6054 14462 9803 1 109.50000 418.400000
9764 14462 9802 1 109.50000 418.400000
9764 14462 9803 1 109.50000 418.400000
9802 14462 9803 1 109.50000 418.400000
3488 14463 4355 1 109.50000 418.400000
3488 14463 8327 1 109.50000 418.400000
3488 14463 9804 1 109.50000 418.400000
4355 14463 8327 1 109.50000 418.400000
4355 14463 9804 1 109.50000 418.400000
8327 14463 9804 1 109.50000 418.400000
2085 14464 2603 1 109.50000 418.400000
2085 14464 4816 1 109.50000 418.400000
2085 14464 7262 1 109.50000 418.400000
2603 14464 4816 1 109.50000 418.400000
2603 14464 7262 1 109.50000 418.400000
4816 14464 7262 1 109.50000 418.400000
1823 14465 4073 1 109.50000 418.400000
1823 14465 8805 1 109.50000 418.400000
1823 14465 9805 1 109.50000 418.400000
4073 14465 8805 1 109.50000 418.400000
4073 14465 9805 1 109.50000 418.400000
8805 14465 9805 1 109.50000 418.400000
949 14466 951 1 109.50000 418.400000
949 14466 7132 1 109.50000 418.400000
949 14466 9807 1 109.50000 418.400000
951 14466 7132 1 109.50000 418.400000
951 14466 9807 1 109.50000 418.400000
7132 14466 9807 1 109.50000 418.400000
4626 14467 5563 1 109.50000 418.400000
4626 14467 9809 1 109.50000 418.400000
4626 14467 9810 1 109.50000 418.400000
5563 14467 9809 1 109.50000 418.400000
5563 14467 9810 1 109.50000 418.400000
9809 14467 9810 1 109.50000 418.400000
1217 14468 9224 1 109.50000 418.400000
1217 14468 9811 1 109.50000 418.400000
1217 14468 9812 1 109.50000 418.400000
9224 14468 9811 1 109.50000 418.400000
9224 14468 9812 1 109.50000 418.400000
9811 14468 9812 1 109.50000 418.400000
5683 14469 9813 1 109.50000 418.400000
5683 14469 9814 1 109.50000 418.400000
5683 14469 9815 1 109.50000 418.400000
9813 14469 9814 1 109.50000 418.400000
9813 14469 9815 1 109.50000 418.400000
9814 14469 9815 1 109.50000 418.400000
3122 14470 4396 1 109.50000 418.400000
3122 14470 8602 1 109.50000 418.400000
3122 14470 9816 1 109.50000 418.400000
4396 14470 8602 1 109.50000 418.400000
4396 14470 9816 1 109.50000 418.400000
8602 14470 9816 1 109.50000 418.400000
3988 14471 6081 1 109.50000 418.400000
3988 14471 9817 1 109.50000 418.400000
3988 14471 9818 1 109.50000 418.400000
6081 14471 9817 1 109.50000 418.400000
6081 14471 9818 1 109.50000 418.400000
9817 14471 9818 1 109.50000 418.400000
2607 14472 6743 1 109.50000 418.400000
2607 14472 9819 1 109.50000 418.400000
2607 14472 9820 1 109.50000 418.400000
6743 14472 9819 1 109.50000 418.400000
6743 14472 9820 1 109.50000 418.400000
9819 14472 9820 1 109.50000 418.400000
476 14473 8108 1 109.50000 418.400000
476 14473 8496 1 109.50000 418.400000
476 14473 9065 1 109.50000 418.400000
8108 14473 8496 1 109.50000 418.400000
8108 14473 9065 1 109.50000 418.400000
8496 14473 9065 1 109.50000 418.400000
258 14474 4562 1 109.50000 418.400000
258 14474 8018 1 109.50000 418.400000
258 14474 9821 1 109.50000 418.400000
4562 14474 8018 1 109.50000 418.400000
4562 14474 9821 1 109.50000 418.400000
8018 14474 9821 1 109.50000 418.400000
596 14475 736 1 109.50000 418.400000
596 14475 9813 1 109.50000 418.400000
596 14475 9826 1 109.50000 418.400000
736 14475 9813 1 109.50000 418.400000
736 14475 9826 1 109.50000 418.400000
9813 14475 9826 1 109.50000 418.400000
2945 14476 9386 1 109.50000 418.400000
2945 14476 9827 1 109.50000 418.400000
2945 14476 9828 1 109.50000 418.400000
9386 14476 9827 1 109.50000 418.400000
9386 14476 9828 1 109.50000 418.400000
9827 14476 9828 1 109.50000 418.400000
936 14477 6945 1 109.50000 418.400000
936 14477 9829 1 109.50000 418.400000
936 14477 9830 1 109.50000 418.400000
6945 14477 9829 1 109.50000 418.400000
6945 14477 9830 1 109.50000 418.400000
9829 14477 9830 1 109.50000 418.400000
8443 14478 9831 1 109.50000 418.400000
8443 14478 9832 1 109.50000 418.400000
8443 14478 9833 1 109.50000 418.400000
9831 14478 9832 1 109.50000 418.400000
9831 14478 9833 1 109.50000 418.400000
9832 14478 9833 1 109.50000 418.400000
9129 14479 9538 1 109.50000 418.400000
9129 14479 9605 1 109.50000 418.400000
9129 14479 9834 1 109.50000 418.400000
9538 14479 9605 1 109.50000 418.400000
9538 14479 9834 1 109.50000 418.400000
9605 14479 9834 1 109.50000 418.400000
4017 14480 7474 1 109.50000 418.400000
4017 14480 9261 1 109.50000 418.400000
4017 14480 9835 1 109.50000 418.400000
7474 14480 9261 1 109.50000 418.400000
7474 14480 9835 1 109.50000 418.400000
9261 14480 9835 1 109.50000 418.400000
4847 14481 9836 1 109.50000 418.400000
4847 14481 9837 1 109.50000 418.400000
4847 14481 9838 1 109.50000 418.400000
9836 14481 9837 1 109.50000 418.400000
9836 14481 9838 1 109.50000 418.400000
9837 14481 9838 1 109.50000 418.400000
743 14482 3003 1 109.50000 418.400000
743 14482 3084 1 109.50000 418.400000
743 14482 3843 1 109.50000 418.400000
3003 14482 3084 1 109.50000 418.400000
3003 14482 3843 1 109.50000 418.400000
3084 14482 3843 1 109.50000 418.400000
810 14483 4132 1 109.50000 418.400000
810 14483 9839 1 109.50000 418.400000
810 14483 9840 1 109.50000 418.400000
4132 14483 9839 1 109.50000 418.400000
4132 14483 9840 1 109.50000 418.400000
9839 14483 9840 1 109.50000 418.400000
5722 14484 9392 1 109.50000 418.400000
5722 14484 9841 1 109.50000 418.400000
5722 14484 9842 1 109.50000 418.400000
9392 14484 9841 1 109.50000 418.400000
9392 14484 9842 1 109.50000 418.400000
9841 14484 9842 1 109.50000 418.400000
1199 14485 1558 1 109.50000 418.400000
1199 14485 2237 1 109.50000 418.400000
1199 14485 6786 1 109.50000 418.400000
1558 14485 2237 1 109.50000 418.400000
1558 14485 6786 1 109.50000 418.400000
2237 14485 6786 1 109.50000 418.400000
2094 14486 7680 1 109.50000 418.400000
2094 14486 9843 1 109.50000 418.400000
2094 14486 9844 1 109.50000 418.400000
7680 14486 9843 1 109.50000 418.400000
7680 14486 9844 1 109.50000 418.400000
9843 14486 9844 1 109.50000 418.400000
1517 14487 6063 1 109.50000 418.400000
1517 14487 7914 1 109.50000 418.400000
1517 14487 8491 1 109.50000 418.400000
6063 14487 7914 1 109.50000 418.400000
6063 14487 8491 1 109.50000 418.400000
7914 14487 8491 1 109.50000 418.400000
6604 14488 9845 1 109.50000 418.400000
6604 14488 9846 1 109.50000 418.400000
6604 14488 9847 1 109.50000 418.400000
9845 14488 9846 1 109.50000 418.400000
9845 14488 9847 1 109.50000 418.400000
9846 14488 9847 1 109.50000 418.400000
3661 14489 3886 1 109.50000 418.400000
3661 14489 7401 1 109.50000 418.400000
3661 14489 9848 1 109.50000 418.400000
3886 14489 7401 1 109.50000 418.400000
3886 14489 9848 1 109.50000 418.400000
7401 14489 9848 1 109.50000 418.400000
2364 14490 7557 1 109.50000 418.400000
2364 14490 9849 1 109.50000 418.400000
2364 14490 9850 1 109.50000 418.400000
7557 14490 9849 1 109.50000 418.400000
7557 14490 9850 1 109.50000 418.400000
9849 14490 9850 1 109.50000 418.400000
3551 14491 6694 1 109.50000 418.400000
3551 14491 8092 1 109.50000 418.400000
3551 14491 9851 1 109.50000 418.400000
6694 14491 8092 1 109.50000 418.400000
6694 14491 9851 1 109.50000 418.400000
8092 14491 9851 1 109.50000 418.400000
149 14492 2549 1 109.50000 418.400000
149 14492 9854 1 109.50000 418.400000
149 14492 10266 1 109.50000 418.400000
2549 14492 9854 1 109.50000 418.400000
2549 14492 10266 1 109.50000 418.400000
9854 14492 10266 1 109.50000 418.400000
3145 14493 3949 1 109.50000 418.400000
3145 14493 6087 1 109.50000 418.400000
3145 14493 8795 1 109.50000 418.400000
3949 14493 6087 1 109.50000 418.400000
3949 14493 8795 1 109.50000 418.400000
6087 14493 8795 1 109.50000 418.400000
3120 14494 6498 1 109.50000 418.400000
3120 14494 9855 1 109.50000 418.400000
3120 14494 9856 1 109.50000 418.400000
6498 14494 9855 1 109.50000 418.400000
6498 14494 9856 1 109.50000 418.400000
9855 14494 9856 1 109.50000 418.400000
1282 14495 6058 1 109.50000 418.400000
1282 14495 7358 1 109.50000 418.400000
1282 14495 9857 1 109.50000 418.400000
6058 14495 7358 1 109.50000 418.400000
6058 14495 9857 1 109.50000 418.400000
7358 14495 9857 1 109.50000 418.400000
2741 14496 5321 1 109.50000 418.400000
2741 14496 9858 1 109.50000 418.400000
2741 14496 9859 1 109.50000 418.400000
5321 14496 9858 1 109.50000 418.400000
5321 14496 9859 1 109.50000 418.400000
9858 14496 9859 1 109.50000 418.400000
4934 14497 7230 1 109.50000 418.400000
4934 14497 9860 1 109.50000 418.400000
4934 14497 9861 1 109.50000 418.400000
7230 14497 9860 1 109.50000 418.400000
7230 14497 9861 1 109.50000 418.400000
9860 14497 9861 1 109.50000 418.400000
3096 14498 7236 1 109.50000 418.400000
3096 14498 9862 1 109.50000 418.400000
3096 14498 9863 1 109.50000 418.400000
7236 14498 9862 1 109.50000 418.400000
7236 14498 9863 1 109.50000 418.400000
9862 14498 9863 1 109.50000 418.400000
1065 14499 6914 1 109.50000 418.400000
1065 14499 8062 1 109.50000 418.400000
1065 14499 9864 1 109.50000 418.400000
6914 14499 8062 1 109.50000 418.400000
6914 14499 9864 1 109.50000 418.400000
8062 14499 9864 1 109.50000 418.400000
4805 14500 4860 1 109.50000 418.400000
4805 14500 9865 1 109.50000 418.400000
4805 14500 9866 1 109.50000 418.400000
4860 14500 9865 1 109.50000 418.400000
4860 14500 9866 1 109.50000 418.400000
9865 14500 9866 1 109.50000 418.400000
8790 14501 9867 1 109.50000 418.400000
8790 14501 9868 1 109.50000 418.400000
8790 14501 9869 1 109.50000 418.400000
9867 14501 9868 1 109.50000 418.400000
9867 14501 9869 1 109.50000 418.400000
9868 14501 9869 1 109.50000 418.400000
5690 14502 7678 1 109.50000 418.400000
5690 14502 9350 1 109.50000 418.400000
5690 14502 9870 1 109.50000 418.400000
7678 14502 9350 1 109.50000 418.400000
7678 14502 9870 1 109.50000 418.400000
9350 14502 9870 1 109.50000 418.400000
4343 14503 8848 1 109.50000 418.400000
4343 14503 9871 1 109.50000 418.400000
4343 14503 9872 1 109.50000 418.400000
8848 14503 9871 1 109.50000 418.400000
8848 14503 9872 1 109.50000 418.400000
9871 14503 9872 1 109.50000 418.400000
8158 14504 9393 1 109.50000 418.400000
8158 14504 9873 1 109.50000 418.400000
8158 14504 9874 1 109.50000 418.400000
9393 14504 9873 1 109.50000 418.400000
9393 14504 9874 1 109.50000 418.400000
9873 14504 9874 1 109.50000 418.400000
4247 14505 6434 1 109.50000 418.400000
4247 14505 9875 1 109.50000 418.400000
4247 14505 9876 1 109.50000 418.400000
6434 14505 9875 1 109.50000 418.400000
6434 14505 9876 1 109.50000 418.400000
9875 14505 9876 1 109.50000 418.400000
3502 14506 9811 1 109.50000 418.400000
3502 14506 9877 1 109.50000 418.400000
3502 14506 9878 1 109.50000 418.400000
9811 14506 9877 1 109.50000 418.400000
9811 14506 9878 1 109.50000 418.400000
9877 14506 9878 1 109.50000 418.400000
1516 14507 7361 1 109.50000 418.400000
1516 14507 7996 1 109.50000 418.400000
1516 14507 9879 1 109.50000 418.400000
7361 14507 7996 1 109.50000 418.400000
7361 14507 9879 1 109.50000 418.400000
7996 14507 9879 1 109.50000 418.400000
6798 14508 9178 1 109.50000 418.400000
6798 14508 9880 1 109.50000 418.400000
6798 14508 9881 1 109.50000 418.400000
9178 14508 9880 1 109.50000 418.400000
9178 14508 9881 1 109.50000 418.400000
9880 14508 9881 1 109.50000 418.400000
7489 14509 8816 1 109.50000 418.400000
7489 14509 9882 1 109.50000 418.400000
7489 14509 9883 1 109.50000 418.400000
8816 14509 9882 1 109.50000 418.400000
8816 14509 9883 1 109.50000 418.400000
9882 14509 9883 1 109.50000 418.400000
860 14510 6970 1 109.50000 418.400000
860 14510 9787 1 109.50000 418.400000
860 14510 9884 1 109.50000 418.400000
6970 14510 9787 1 109.50000 418.400000
6970 14510 9884 1 109.50000 418.400000
9787 14510 9884 1 109.50000 418.400000
1580 14511 6588 1 109.50000 418.400000
1580 14511 6589 1 109.50000 418.400000
1580 14511 9769 1 109.50000 418.400000
6588 14511 6589 1 109.50000 418.400000
6588 14511 9769 1 109.50000 418.400000
6589 14511 9769 1 109.50000 418.400000
2007 14512 2403 1 109.50000 418.400000
2007 14512 2656 1 109.50000 418.400000
2007 14512 7299 1 109.50000 418.400000
2403 14512 2656 1 109.50000 418.400000
2403 14512 7299 1 109.50000 418.400000
2656 14512 7299 1 109.50000 418.400000
1202 14513 2804 1 109.50000 418.400000
1202 14513 4115 1 109.50000 418.400000
1202 14513 9885 1 109.50000 418.400000
2804 14513 4115 1 109.50000 418.400000
2804 14513 9885 1 109.50000 418.400000
4115 14513 9885 1 109.50000 418.400000
517 14514 9217 1 109.50000 418.400000
517 14514 9218 1 109.50000 418.400000
517 14514 9465 1 109.50000 418.400000
9217 14514 9218 1 109.50000 418.400000
9217 14514 9465 1 109.50000 418.400000
9218 14514 9465 1 109.50000 418.400000
4415 14515 4832 1 109.50000 418.400000
4415 14515 4913 1 109.50000 418.400000
4415 14515 7050 1 109.50000 418.400000
4832 14515 4913 1 109.50000 418.400000
4832 14515 7050 1 109.50000 418.400000
4913 14515 7050 1 109.50000 418.400000
50 14516 4728 1 109.50000 418.400000
50 14516 9676 1 109.50000 418.400000
50 14516 9886 1 109.50000 418.400000
4728 14516 9676 1 109.50000 418.400000
4728 14516 9886 1 109.50000 418.400000
9676 14516 9886 1 109.50000 418.400000
1735 14517 2010 1 109.50000 418.400000
1735 14517 2080 1 109.50000 418.400000
1735 14517 5941 1 109.50000 418.400000
2010 14517 2080 1 109.50000 418.400000
2010 14517 5941 1 109.50000 418.400000
2080 14517 5941 1 109.50000 418.400000
1233 14518 9069 1 109.50000 418.400000
1233 14518 9888 1 109.50000 418.400000
1233 14518 9889 1 109.50000 418.400000
9069 14518 9888 1 109.50000 418.400000
9069 14518 9889 1 109.50000 418.400000
9888 14518 9889 1 109.50000 418.400000
2290 14519 9890 1 109.50000 418.400000
2290 14519 9891 1 109.50000 418.400000
2290 14519 9892 1 109.50000 418.400000
9890 14519 9891 1 109.50000 418.400000
9890 14519 9892 1 109.50000 418.400000
9891 14519 9892 1 109.50000 418.400000
820 14520 2374 1 109.50000 418.400000
820 14520 9893 1 109.50000 418.400000
820 14520 9894 1 109.50000 418.400000
2374 14520 9893 1 109.50000 418.400000
2374 14520 9894 1 109.50000 418.400000
9893 14520 9894 1 109.50000 418.400000
6025 14521 8551 1 109.50000 418.400000
6025 14521 8944 1 109.50000 418.400000
6025 14521 9895 1 109.50000 418.400000
8551 14521 8944 1 109.50000 418.400000
8551 14521 9895 1 109.50000 418.400000
8944 14521 9895 1 109.50000 418.400000
6618 14522 6956 1 109.50000 418.400000
6618 14522 7775 1 109.50000 418.400000
6618 14522 9896 1 109.50000 418.400000
6956 14522 7775 1 109.50000 418.400000
6956 14522 9896 1 109.50000 418.400000
7775 14522 9896 1 109.50000 418.400000
2376 14523 5223 1 109.50000 418.400000
2376 14523 9897 1 109.50000 418.400000
2376 14523 9898 1 109.50000 418.400000
5223 14523 9897 1 109.50000 418.400000
5223 14523 9898 1 109.50000 418.400000
9897 14523 9898 1 109.50000 418.400000
6077 14524 6451 1 109.50000 418.400000
6077 14524 8315 1 109.50000 418.400000
6077 14524 9899 1 109.50000 418.400000
6451 14524 8315 1 109.50000 418.400000
6451 14524 9899 1 109.50000 418.400000
8315 14524 9899 1 109.50000 418.400000
1290 14525 1397 1 109.50000 418.400000
1290 14525 6842 1 109.50000 418.400000
1290 14525 9669 1 109.50000 418.400000
1397 14525 6842 1 109.50000 418.400000
1397 14525 9669 1 109.50000 418.400000
6842 14525 9669 1 109.50000 418.400000
9491 14526 9900 1 109.50000 418.400000
9491 14526 9901 1 109.50000 418.400000
9491 14526 9902 1 109.50000 418.400000
9900 14526 9901 1 109.50000 418.400000
9900 14526 9902 1 109.50000 418.400000
9901 14526 9902 1 109.50000 418.400000
6400 14527 9485 1 109.50000 418.400000
6400 14527 9906 1 109.50000 418.400000
6400 14527 9907 1 109.50000 418.400000
9485 14527 9906 1 109.50000 418.400000
9485 14527 9907 1 109.50000 418.400000
9906 14527 9907 1 109.50000 418.400000
6501 14528 7524 1 109.50000 418.400000
6501 14528 9908 1 109.50000 418.400000
6501 14528 9909 1 109.50000 418.400000
7524 14528 9908 1 109.50000 418.400000
7524 14528 9909 1 109.50000 418.400000
9908 14528 9909 1 109.50000 418.400000
8372 14529 9750 1 109.50000 418.400000
8372 14529 9910 1 109.50000 418.400000
8372 14529 11200 1 109.50000 418.400000
9750 14529 9910 1 109.50000 418.400000
9750 14529 11200 1 109.50000 418.400000
9910 14529 11200 1 109.50000 418.400000
2131 14530 2740 1 109.50000 418.400000
2131 14530 5771 1 109.50000 418.400000
2131 14530 9911 1 109.50000 418.400000
2740 14530 5771 1 109.50000 418.400000
2740 14530 9911 1 109.50000 418.400000
5771 14530 9911 1 109.50000 418.400000
4405 14531 6207 1 109.50000 418.400000
4405 14531 8102 1 109.50000 418.400000
4405 14531 9912 1 109.50000 418.400000
6207 14531 8102 1 109.50000 418.400000
6207 14531 9912 1 109.50000 418.400000
8102 14531 9912 1 109.50000 418.400000
283 14532 9119 1 109.50000 418.400000
283 14532 9307 1 109.50000 418.400000
283 14532 9913 1 109.50000 418.400000
9119 14532 9307 1 109.50000 418.400000
9119 14532 9913 1 109.50000 418.400000
9307 14532 9913 1 109.50000 418.400000
1159 14533 7939 1 109.50000 418.400000
1159 14533 8543 1 109.50000 418.400000
1159 14533 9419 1 109.50000 418.400000
7939 14533 8543 1 109.50000 418.400000
7939 14533 9419 1 109.50000 418.400000
8543 14533 9419 1 109.50000 418.400000
244 14534 7626 1 109.50000 418.400000
244 14534 8793 1 109.50000 418.400000
244 14534 9192 1 109.50000 418.400000
7626 14534 8793 1 109.50000 418.400000
7626 14534 9192 1 109.50000 418.400000
8793 14534 9192 1 109.50000 418.400000
3882 14535 4474 1 109.50000 418.400000
3882 14535 9914 1 109.50000 418.400000
3882 14535 9915 1 109.50000 418.400000
4474 14535 9914 1 109.50000 418.400000
4474 14535 9915 1 109.50000 418.400000
9914 14535 9915 1 109.50000 418.400000
3508 14536 7768 1 109.50000 418.400000
3508 14536 8733 1 109.50000 418.400000
3508 14536 9916 1 109.50000 418.400000
7768 14536 8733 1 109.50000 418.400000
7768 14536 9916 1 109.50000 418.400000
8733 14536 9916 1 109.50000 418.400000
3906 14537 6845 1 109.50000 418.400000
3906 14537 9917 1 109.50000 418.400000
3906 14537 9918 1 109.50000 418.400000
6845 14537 9917 1 109.50000 418.400000
6845 14537 9918 1 109.50000 418.400000
9917 14537 9918 1 109.50000 418.400000
6841 14538 7138 1 109.50000 418.400000
6841 14538 9919 1 109.50000 418.400000
6841 14538 9920 1 109.50000 418.400000
7138 14538 9919 1 109.50000 418.400000
7138 14538 9920 1 109.50000 418.400000
9919 14538 9920 1 109.50000 418.400000
6195 14539 7176 1 109.50000 418.400000
6195 14539 8302 1 109.50000 418.400000
6195 14539 9921 1 109.50000 418.400000
7176 14539 8302 1 109.50000 418.400000
7176 14539 9921 1 109.50000 418.400000
8302 14539 9921 1 109.50000 418.400000
3498 14540 4671 1 109.50000 418.400000
3498 14540 5430 1 109.50000 418.400000
3498 14540 9922 1 109.50000 418.400000
4671 14540 5430 1 109.50000 418.400000
4671 14540 9922 1 109.50000 418.400000
5430 14540 9922 1 109.50000 418.400000
7077 14541 8896 1 109.50000 418.400000
7077 14541 9924 1 109.50000 418.400000
7077 14541 9925 1 109.50000 418.400000
8896 14541 9924 1 109.50000 418.400000
8896 14541 9925 1 109.50000 418.400000
9924 14541 9925 1 109.50000 418.400000
499 14542 9359 1 109.50000 418.400000
499 14542 9360 1 109.50000 418.400000
499 14542 9926 1 109.50000 418.400000
9359 14542 9360 1 109.50000 418.400000
9359 14542 9926 1 109.50000 418.400000
9360 14542 9926 1 109.50000 418.400000
8828 14543 9858 1 109.50000 418.400000
8828 14543 9927 1 109.50000 418.400000
8828 14543 11194 1 109.50000 418.400000
9858 14543 9927 1 109.50000 418.400000
9858 14543 11194 1 109.50000 418.400000
9927 14543 11194 1 109.50000 418.400000
1934 14544 3437 1 109.50000 418.400000
1934 14544 9809 1 109.50000 418.400000
1934 14544 9928 1 109.50000 418.400000
3437 14544 9809 1 109.50000 418.400000
3437 14544 9928 1 109.50000 418.400000
9809 14544 9928 1 109.50000 418.400000
2416 14545 8035 1 109.50000 418.400000
2416 14545 9759 1 109.50000 418.400000
2416 14545 9760 1 109.50000 418.400000
8035 14545 9759 1 109.50000 418.400000
8035 14545 9760 1 109.50000 418.400000
9759 14545 9760 1 109.50000 418.400000
463 14546 6477 1 109.50000 418.400000
463 14546 9142 1 109.50000 418.400000
463 14546 9929 1 109.50000 418.400000
6477 14546 9142 1 109.50000 418.400000
6477 14546 9929 1 109.50000 418.400000
9142 14546 9929 1 109.50000 418.400000
7530 14547 7795 1 109.50000 418.400000
7530 14547 9931 1 109.50000 418.400000
7530 14547 9932 1 109.50000 418.400000
7795 14547 9931 1 109.50000 418.400000
7795 14547 9932 1 109.50000 418.400000
9931 14547 9932 1 109.50000 418.400000
2902 14548 9239 1 109.50000 418.400000
2902 14548 9902 1 109.50000 418.400000
2902 14548 9934 1 109.50000 418.400000
9239 14548 9902 1 109.50000 418.400000
9239 14548 9934 1 109.50000 418.400000
9902 14548 9934 1 109.50000 418.400000
500 14549 3484 1 109.50000 418.400000
500 14549 9082 1 109.50000 418.400000
500 14549 9935 1 109.50000 418.400000
3484 14549 9082 1 109.50000 418.400000
3484 14549 9935 1 109.50000 418.400000
9082 14549 9935 1 109.50000 418.400000
3704 14550 5302 1 109.50000 418.400000
3704 14550 9936 1 109.50000 418.400000
3704 14550 9937 1 109.50000 418.400000
5302 14550 9936 1 109.50000 418.400000
5302 14550 9937 1 109.50000 418.400000
9936 14550 9937 1 109.50000 418.400000
4983 14551 8447 1 109.50000 418.400000
4983 14551 8487 1 109.50000 418.400000
4983 14551 9938 1 109.50000 418.400000
8447 14551 8487 1 109.50000 418.400000
8447 14551 9938 1 109.50000 418.400000
8487 14551 9938 1 109.50000 418.400000
2814 14552 8696 1 109.50000 418.400000
2814 14552 8897 1 109.50000 418.400000
2814 14552 9939 1 109.50000 418.400000
8696 14552 8897 1 109.50000 418.400000
8696 14552 9939 1 109.50000 418.400000
8897 14552 9939 1 109.50000 418.400000
3613 14553 9707 1 109.50000 418.400000
3613 14553 9941 1 109.50000 418.400000
3613 14553 9942 1 109.50000 418.400000
9707 14553 9941 1 109.50000 418.400000
9707 14553 9942 1 109.50000 418.400000
9941 14553 9942 1 109.50000 418.400000
2037 14554 2370 1 109.50000 418.400000
2037 14554 2393 1 109.50000 418.400000
2037 14554 7413 1 109.50000 418.400000
2370 14554 2393 1 109.50000 418.400000
2370 14554 7413 1 109.50000 418.400000
2393 14554 7413 1 109.50000 418.400000
1690 14555 4230 1 109.50000 418.400000
1690 14555 5194 1 109.50000 418.400000
1690 14555 9943 1 109.50000 418.400000
4230 14555 5194 1 109.50000 418.400000
4230 14555 9943 1 109.50000 418.400000
5194 14555 9943 1 109.50000 418.400000
3407 14556 7315 1 109.50000 418.400000
3407 14556 8080 1 109.50000 418.400000
3407 14556 9944 1 109.50000 418.400000
7315 14556 8080 1 109.50000 418.400000
7315 14556 9944 1 109.50000 418.400000
8080 14556 9944 1 109.50000 418.400000
5453 14557 5693 1 109.50000 418.400000
5453 14557 9945 1 109.50000 418.400000
5453 14557 9946 1 109.50000 418.400000
5693 14557 9945 1 109.50000 418.400000
5693 14557 9946 1 109.50000 418.400000
9945 14557 9946 1 109.50000 418.400000
6968 14558 6969 1 109.50000 418.400000
6968 14558 9947 1 109.50000 418.400000
6968 14558 9948 1 109.50000 418.400000
6969 14558 9947 1 109.50000 418.400000
6969 14558 9948 1 109.50000 418.400000
9947 14558 9948 1 109.50000 418.400000
9951 14559 9952 1 109.50000 418.400000
9951 14559 9953 1 109.50000 418.400000
9951 14559 9954 1 109.50000 418.400000
9952 14559 9953 1 109.50000 418.400000
9952 14559 9954 1 109.50000 418.400000
9953 14559 9954 1 109.50000 418.400000
897 14560 1855 1 109.50000 418.400000
897 14560 4030 1 109.50000 418.400000
897 14560 9051 1 109.50000 418.400000
1855 14560 4030 1 109.50000 418.400000
1855 14560 9051 1 109.50000 418.400000
4030 14560 9051 1 109.50000 418.400000
1006 14561 1493 1 109.50000 418.400000
1006 14561 4842 1 109.50000 418.400000
1006 14561 6137 1 109.50000 418.400000
1493 14561 4842 1 109.50000 418.400000
1493 14561 6137 1 109.50000 418.400000
4842 14561 6137 1 109.50000 418.400000
3760 14562 8515 1 109.50000 418.400000
3760 14562 9842 1 109.50000 418.400000
3760 14562 9956 1 109.50000 418.400000
8515 14562 9842 1 109.50000 418.400000
8515 14562 9956 1 109.50000 418.400000
9842 14562 9956 1 109.50000 418.400000
4163 14563 8342 1 109.50000 418.400000
4163 14563 9147 1 109.50000 418.400000
4163 14563 9957 1 109.50000 418.400000
8342 14563 9147 1 109.50000 418.400000
8342 14563 9957 1 109.50000 418.400000
9147 14563 9957 1 109.50000 418.400000
477 14564 1105 1 109.50000 418.400000
477 14564 9320 1 109.50000 418.400000
477 14564 9958 1 109.50000 418.400000
1105 14564 9320 1 109.50000 418.400000
1105 14564 9958 1 109.50000 418.400000
9320 14564 9958 1 109.50000 418.400000
4799 14565 5653 1 109.50000 418.400000
4799 14565 9959 1 109.50000 418.400000
4799 14565 9960 1 109.50000 418.400000
5653 14565 9959 1 109.50000 418.400000
5653 14565 9960 1 109.50000 418.400000
9959 14565 9960 1 109.50000 418.400000
748 14566 7086 1 109.50000 418.400000
748 14566 8798 1 109.50000 418.400000
748 14566 9961 1 109.50000 418.400000
7086 14566 8798 1 109.50000 418.400000
7086 14566 9961 1 109.50000 418.400000
8798 14566 9961 1 109.50000 418.400000
9423 14567 9962 1 109.50000 418.400000
9423 14567 9963 1 109.50000 418.400000
9423 14567 11226 1 109.50000 418.400000
9962 14567 9963 1 109.50000 418.400000
9962 14567 11226 1 109.50000 418.400000
9963 14567 11226 1 109.50000 418.400000
4148 14568 4840 1 109.50000 418.400000
4148 14568 9601 1 109.50000 418.400000
4148 14568 9964 1 109.50000 418.400000
4840 14568 9601 1 109.50000 418.400000
4840 14568 9964 1 109.50000 418.400000
9601 14568 9964 1 109.50000 418.400000
3745 14569 6210 1 109.50000 418.400000
3745 14569 9671 1 109.50000 418.400000
3745 14569 9967 1 109.50000 418.400000
6210 14569 9671 1 109.50000 418.400000
6210 14569 9967 1 109.50000 418.400000
9671 14569 9967 1 109.50000 418.400000
2658 14570 7995 1 109.50000 418.400000
2658 14570 9968 1 109.50000 418.400000
2658 14570 9969 1 109.50000 418.400000
7995 14570 9968 1 109.50000 418.400000
7995 14570 9969 1 109.50000 418.400000
9968 14570 9969 1 109.50000 418.400000
6483 14571 7553 1 109.50000 418.400000
6483 14571 8485 1 109.50000 418.400000
6483 14571 9970 1 109.50000 418.400000
7553 14571 8485 1 109.50000 418.400000
7553 14571 9970 1 109.50000 418.400000
8485 14571 9970 1 109.50000 418.400000
4303 14572 8384 1 109.50000 418.400000
4303 14572 8523 1 109.50000 418.400000
4303 14572 8866 1 109.50000 418.400000
8384 14572 8523 1 109.50000 418.400000
8384 14572 8866 1 109.50000 418.400000
8523 14572 8866 1 109.50000 418.400000
8153 14573 8876 1 109.50000 418.400000
8153 14573 9971 1 109.50000 418.400000
8153 14573 9972 1 109.50000 418.400000
8876 14573 9971 1 109.50000 418.400000
8876 14573 9972 1 109.50000 418.400000
9971 14573 9972 1 109.50000 418.400000
3040 14574 4377 1 109.50000 418.400000
3040 14574 9321 1 109.50000 418.400000
3040 14574 9973 1 109.50000 418.400000
4377 14574 9321 1 109.50000 418.400000
4377 14574 9973 1 109.50000 418.400000
9321 14574 9973 1 109.50000 418.400000
4618 14575 7921 1 109.50000 418.400000
4618 14575 9974 1 109.50000 418.400000
4618 14575 9975 1 109.50000 418.400000
7921 14575 9974 1 109.50000 418.400000
7921 14575 9975 1 109.50000 418.400000
9974 14575 9975 1 109.50000 418.400000
981 14576 982 1 109.50000 418.400000
981 14576 5667 1 109.50000 418.400000
981 14576 9976 1 109.50000 418.400000
982 14576 5667 1 109.50000 418.400000
982 14576 9976 1 109.50000 418.400000
5667 14576 9976 1 109.50000 418.400000
1286 14577 1287 1 109.50000 418.400000
1286 14577 6403 1 109.50000 418.400000
1286 14577 9977 1 109.50000 418.400000
1287 14577 6403 1 109.50000 418.400000
1287 14577 9977 1 109.50000 418.400000
6403 14577 9977 1 109.50000 418.400000
619 14578 4871 1 109.50000 418.400000
619 14578 8980 1 109.50000 418.400000
619 14578 11220 1 109.50000 418.400000
4871 14578 8980 1 109.50000 418.400000
4871 14578 11220 1 109.50000 418.400000
8980 14578 11220 1 109.50000 418.400000
4890 14579 9075 1 109.50000 418.400000
4890 14579 9979 1 109.50000 418.400000
4890 14579 9980 1 109.50000 418.400000
9075 14579 9979 1 109.50000 418.400000
9075 14579 9980 1 109.50000 418.400000
9979 14579 9980 1 109.50000 418.400000
1 14580 2440 1 109.50000 418.400000
1 14580 4345 1 109.50000 418.400000
1 14580 6630 1 109.50000 418.400000
2440 14580 4345 1 109.50000 418.400000
2440 14580 6630 1 109.50000 418.400000
4345 14580 6630 1 109.50000 418.400000
3178 14581 7101 1 109.50000 418.400000
3178 14581 8622 1 109.50000 418.400000
3178 14581 9982 1 109.50000 418.400000
7101 14581 8622 1 109.50000 418.400000
7101 14581 9982 1 109.50000 418.400000
8622 14581 9982 1 109.50000 418.400000
1173 14582 7395 1 109.50000 418.400000
1173 14582 9721 1 109.50000 418.400000
1173 14582 9983 1 109.50000 418.400000
7395 14582 9721 1 109.50000 418.400000
7395 14582 9983 1 109.50000 418.400000
9721 14582 9983 1 109.50000 418.400000
2287 14583 3514 1 109.50000 418.400000
2287 14583 9984 1 109.50000 418.400000
2287 14583 9985 1 109.50000 418.400000
3514 14583 9984 1 109.50000 418.400000
3514 14583 9985 1 109.50000 418.400000
9984 14583 9985 1 109.50000 418.400000
2274 14584 5032 1 109.50000 418.400000
2274 14584 9784 1 109.50000 418.400000
2274 14584 9986 1 109.50000 418.400000
5032 14584 9784 1 109.50000 418.400000
5032 14584 9986 1 109.50000 418.400000
9784 14584 9986 1 109.50000 418.400000
2502 14585 3473 1 109.50000 418.400000
2502 14585 6102 1 109.50000 418.400000
2502 14585 9447 1 109.50000 418.400000
3473 14585 6102 1 109.50000 418.400000
3473 14585 9447 1 109.50000 418.400000
6102 14585 9447 1 109.50000 418.400000
1787 14586 6409 1 109.50000 418.400000
1787 14586 9357 1 109.50000 418.400000
1787 14586 9987 1 109.50000 418.400000
6409 14586 9357 1 109.50000 418.400000
6409 14586 9987 1 109.50000 418.400000
9357 14586 9987 1 109.50000 418.400000
1976 14587 6840 1 109.50000 418.400000
1976 14587 9988 1 109.50000 418.400000
1976 14587 9989 1 109.50000 418.400000
6840 14587 9988 1 109.50000 418.400000
6840 14587 9989 1 109.50000 418.400000
9988 14587 9989 1 109.50000 418.400000
8178 14588 8246 1 109.50000 418.400000
8178 14588 9991 1 109.50000 418.400000
8178 14588 9992 1 109.50000 418.400000
8246 14588 9991 1 109.50000 418.400000
8246 14588 9992 1 109.50000 418.400000
9991 14588 9992 1 109.50000 418.400000
1796 14589 3472 1 109.50000 418.400000
1796 14589 9445 1 109.50000 418.400000
1796 14589 9996 1 109.50000 418.400000
3472 14589 9445 1 109.50000 418.400000
3472 14589 9996 1 109.50000 418.400000
9445 14589 9996 1 109.50000 418.400000
1912 14590 2566 1 109.50000 418.400000
1912 14590 5779 1 109.50000 418.400000
1912 14590 8837 1 109.50000 418.400000
2566 14590 5779 1 109.50000 418.400000
2566 14590 8837 1 109.50000 418.400000
5779 14590 8837 1 109.50000 418.400000
1535 14591 5451 1 109.50000 418.400000
1535 14591 8243 1 109.50000 418.400000
1535 14591 9816 1 109.50000 418.400000
5451 14591 8243 1 109.50000 418.400000
5451 14591 9816 1 109.50000 418.400000
8243 14591 9816 1 109.50000 418.400000
6179 14592 8637 1 109.50000 418.400000
6179 14592 9997 1 109.50000 418.400000
6179 14592 9998 1 109.50000 418.400000
8637 14592 9997 1 109.50000 418.400000
8637 14592 9998 1 109.50000 418.400000
9997 14592 9998 1 109.50000 418.400000
9468 14593 9999 1 109.50000 418.400000
9468 14593 10000 1 109.50000 418.400000
9468 14593 10001 1 109.50000 418.400000
9999 14593 10000 1 109.50000 418.400000
9999 14593 10001 1 109.50000 418.400000
10000 14593 10001 1 109.50000 418.400000
2325 14594 8024 1 109.50000 418.400000
2325 14594 8489 1 109.50000 418.400000
2325 14594 9481 1 109.50000 418.400000
8024 14594 8489 1 109.50000 418.400000
8024 14594 9481 1 109.50000 418.400000
8489 14594 9481 1 109.50000 418.400000
8190 14595 10002 1 109.50000 418.400000
8190 14595 10003 1 109.50000 418.400000
8190 14595 10004 1 109.50000 418.400000
10002 14595 10003 1 109.50000 418.400000
10002 14595 10004 1 109.50000 418.400000
10003 14595 10004 1 109.50000 418.400000
4615 14596 5718 1 109.50000 418.400000
4615 14596 10005 1 109.50000 418.400000
4615 14596 10006 1 109.50000 418.400000
5718 14596 10005 1 109.50000 418.400000
5718 14596 10006 1 109.50000 418.400000
10005 14596 10006 1 109.50000 418.400000
6819 14597 8169 1 109.50000 418.400000
6819 14597 9694 1 109.50000 418.400000
6819 14597 10007 1 109.50000 418.400000
8169 14597 9694 1 109.50000 418.400000
8169 14597 10007 1 109.50000 418.400000
9694 14597 10007 1 109.50000 418.400000
4287 14598 5900 1 109.50000 418.400000
4287 14598 6052 1 109.50000 418.400000
4287 14598 10008 1 109.50000 418.400000
5900 14598 6052 1 109.50000 418.400000
5900 14598 10008 1 109.50000 418.400000
6052 14598 10008 1 109.50000 418.400000
8852 14599 9856 1 109.50000 418.400000
8852 14599 9935 1 109.50000 418.400000
8852 14599 10009 1 109.50000 418.400000
9856 14599 9935 1 109.50000 418.400000
9856 14599 10009 1 109.50000 418.400000
9935 14599 10009 1 109.50000 418.400000
8146 14600 8918 1 109.50000 418.400000
8146 14600 10010 1 109.50000 418.400000
8146 14600 10011 1 109.50000 418.400000
8918 14600 10010 1 109.50000 418.400000
8918 14600 10011 1 109.50000 418.400000
10010 14600 10011 1 109.50000 418.400000
6602 14601 6878 1 109.50000 418.400000
6602 14601 8180 1 109.50000 418.400000
6602 14601 9805 1 109.50000 418.400000
6878 14601 8180 1 109.50000 418.400000
6878 14601 9805 1 109.50000 418.400000
8180 14601 9805 1 109.50000 418.400000
3123 14602 5452 1 109.50000 418.400000
3123 14602 10013 1 109.50000 418.400000
3123 14602 10014 1 109.50000 418.400000
5452 14602 10013 1 109.50000 418.400000
5452 14602 10014 1 109.50000 418.400000
10013 14602 10014 1 109.50000 418.400000
3296 14603 6626 1 109.50000 418.400000
3296 14603 7971 1 109.50000 418.400000
3296 14603 10015 1 109.50000 418.400000
6626 14603 7971 1 109.50000 418.400000
6626 14603 10015 1 109.50000 418.400000
7971 14603 10015 1 109.50000 418.400000
7167 14604 7738 1 109.50000 418.400000
7167 14604 10016 1 109.50000 418.400000
7167 14604 10017 1 109.50000 418.400000
7738 14604 10016 1 109.50000 418.400000
7738 14604 10017 1 109.50000 418.400000
10016 14604 10017 1 109.50000 418.400000
5741 14605 10018 1 109.50000 418.400000
5741 14605 10019 1 109.50000 418.400000
5741 14605 10020 1 109.50000 418.400000
10018 14605 10019 1 109.50000 418.400000
10018 14605 10020 1 109.50000 418.400000
10019 14605 10020 1 109.50000 418.400000
6401 14606 6585 1 109.50000 418.400000
6401 14606 10022 1 109.50000 418.400000
6401 14606 10023 1 109.50000 418.400000
6585 14606 10022 1 109.50000 418.400000
6585 14606 10023 1 109.50000 418.400000
10022 14606 10023 1 109.50000 418.400000
615 14607 6279 1 109.50000 418.400000
615 14607 8788 1 109.50000 418.400000
615 14607 10025 1 109.50000 418.400000
6279 14607 8788 1 109.50000 418.400000
6279 14607 10025 1 109.50000 418.400000
8788 14607 10025 1 109.50000 418.400000
1893 14608 2039 1 109.50000 418.400000
1893 14608 3214 1 109.50000 418.400000
1893 14608 10026 1 109.50000 418.400000
2039 14608 3214 1 109.50000 418.400000
2039 14608 10026 1 109.50000 418.400000
3214 14608 10026 1 109.50000 418.400000
5808 14609 7578 1 109.50000 418.400000
5808 14609 10027 1 109.50000 418.400000
5808 14609 10028 1 109.50000 418.400000
7578 14609 10027 1 109.50000 418.400000
7578 14609 10028 1 109.50000 418.400000
10027 14609 10028 1 109.50000 418.400000
2386 14610 4401 1 109.50000 418.400000
2386 14610 5228 1 109.50000 418.400000
2386 14610 5996 1 109.50000 418.400000
4401 14610 5228 1 109.50000 418.400000
4401 14610 5996 1 109.50000 418.400000
5228 14610 5996 1 109.50000 418.400000
8143 14611 8873 1 109.50000 418.400000
8143 14611 9415 1 109.50000 418.400000
8143 14611 10029 1 109.50000 418.400000
8873 14611 9415 1 109.50000 418.400000
8873 14611 10029 1 109.50000 418.400000
9415 14611 10029 1 109.50000 418.400000
2201 14612 7109 1 109.50000 418.400000
2201 14612 9822 1 109.50000 418.400000
2201 14612 9963 1 109.50000 418.400000
7109 14612 9822 1 109.50000 418.400000
7109 14612 9963 1 109.50000 418.400000
9822 14612 9963 1 109.50000 418.400000
6746 14613 7114 1 109.50000 418.400000
6746 14613 10030 1 109.50000 418.400000
6746 14613 11168 1 109.50000 418.400000
7114 14613 10030 1 109.50000 418.400000
7114 14613 11168 1 109.50000 418.400000
10030 14613 11168 1 109.50000 418.400000
6948 14614 6949 1 109.50000 418.400000
6948 14614 6950 1 109.50000 418.400000
6948 14614 10031 1 109.50000 418.400000
6949 14614 6950 1 109.50000 418.400000
6949 14614 10031 1 109.50000 418.400000
6950 14614 10031 1 109.50000 418.400000
69 14615 2698 1 109.50000 418.400000
69 14615 2913 1 109.50000 418.400000
69 14615 10033 1 109.50000 418.400000
2698 14615 2913 1 109.50000 418.400000
2698 14615 10033 1 109.50000 418.400000
2913 14615 10033 1 109.50000 418.400000
3204 14616 3278 1 109.50000 418.400000
3204 14616 4174 1 109.50000 418.400000
3204 14616 5240 1 109.50000 418.400000
3278 14616 4174 1 109.50000 418.400000
3278 14616 5240 1 109.50000 418.400000
4174 14616 5240 1 109.50000 418.400000
2998 14617 4855 1 109.50000 418.400000
2998 14617 7012 1 109.50000 418.400000
2998 14617 8909 1 109.50000 418.400000
4855 14617 7012 1 109.50000 418.400000
4855 14617 8909 1 109.50000 418.400000
7012 14617 8909 1 109.50000 418.400000
3975 14618 5425 1 109.50000 418.400000
3975 14618 10037 1 109.50000 418.400000
3975 14618 10038 1 109.50000 418.400000
5425 14618 10037 1 109.50000 418.400000
5425 14618 10038 1 109.50000 418.400000
10037 14618 10038 1 109.50000 418.400000
2720 14619 4867 1 109.50000 418.400000
2720 14619 5347 1 109.50000 418.400000
2720 14619 10039 1 109.50000 418.400000
4867 14619 5347 1 109.50000 418.400000
4867 14619 10039 1 109.50000 418.400000
5347 14619 10039 1 109.50000 418.400000
4284 14620 4285 1 109.50000 418.400000
4284 14620 4946 1 109.50000 418.400000
4284 14620 10040 1 109.50000 418.400000
4285 14620 4946 1 109.50000 418.400000
4285 14620 10040 1 109.50000 418.400000
4946 14620 10040 1 109.50000 418.400000
1283 14621 8195 1 109.50000 418.400000
1283 14621 9115 1 109.50000 418.400000
1283 14621 10041 1 109.50000 418.400000
8195 14621 9115 1 109.50000 418.400000
8195 14621 10041 1 109.50000 418.400000
9115 14621 10041 1 109.50000 418.400000
1865 14622 6926 1 109.50000 418.400000
1865 14622 10042 1 109.50000 418.400000
1865 14622 10043 1 109.50000 418.400000
6926 14622 10042 1 109.50000 418.400000
6926 14622 10043 1 109.50000 418.400000
10042 14622 10043 1 109.50000 418.400000
4301 14623 6319 1 109.50000 418.400000
4301 14623 6690 1 109.50000 418.400000
4301 14623 8004 1 109.50000 418.400000
6319 14623 6690 1 109.50000 418.400000
6319 14623 8004 1 109.50000 418.400000
6690 14623 8004 1 109.50000 418.400000
3019 14624 7810 1 109.50000 418.400000
3019 14624 10044 1 109.50000 418.400000
3019 14624 10045 1 109.50000 418.400000
7810 14624 10044 1 109.50000 418.400000
7810 14624 10045 1 109.50000 418.400000
10044 14624 10045 1 109.50000 418.400000
9029 14625 10046 1 109.50000 418.400000
9029 14625 10047 1 109.50000 418.400000
9029 14625 11221 1 109.50000 418.400000
10046 14625 10047 1 109.50000 418.400000
10046 14625 11221 1 109.50000 418.400000
10047 14625 11221 1 109.50000 418.400000
3939 14626 5894 1 109.50000 418.400000
3939 14626 9430 1 109.50000 418.400000
3939 14626 10048 1 109.50000 418.400000
5894 14626 9430 1 109.50000 418.400000
5894 14626 10048 1 109.50000 418.400000
9430 14626 10048 1 109.50000 418.400000
3385 14627 4053 1 109.50000 418.400000
3385 14627 10049 1 109.50000 418.400000
3385 14627 10050 1 109.50000 418.400000
4053 14627 10049 1 109.50000 418.400000
4053 14627 10050 1 109.50000 418.400000
10049 14627 10050 1 109.50000 418.400000
2337 14628 4276 1 109.50000 418.400000
2337 14628 6112 1 109.50000 418.400000
2337 14628 6113 1 109.50000 418.400000
4276 14628 6112 1 109.50000 418.400000
4276 14628 6113 1 109.50000 418.400000
6112 14628 6113 1 109.50000 418.400000
4263 14629 6565 1 109.50000 418.400000
4263 14629 6672 1 109.50000 418.400000
4263 14629 10054 1 109.50000 418.400000
6565 14629 6672 1 109.50000 418.400000
6565 14629 10054 1 109.50000 418.400000
6672 14629 10054 1 109.50000 418.400000
3170 14630 6055 1 109.50000 418.400000
3170 14630 6881 1 109.50000 418.400000
3170 14630 8802 1 109.50000 418.400000
6055 14630 6881 1 109.50000 418.400000
6055 14630 8802 1 109.50000 418.400000
6881 14630 8802 1 109.50000 418.400000
1504 14631 1638 1 109.50000 418.400000
1504 14631 8437 1 109.50000 418.400000
1504 14631 10056 1 109.50000 418.400000
1638 14631 8437 1 109.50000 418.400000
1638 14631 10056 1 109.50000 418.400000
8437 14631 10056 1 109.50000 418.400000
4020 14632 4409 1 109.50000 418.400000
4020 14632 10057 1 109.50000 418.400000
4020 14632 10058 1 109.50000 418.400000
4409 14632 10057 1 109.50000 418.400000
4409 14632 10058 1 109.50000 418.400000
10057 14632 10058 1 109.50000 418.400000
1010 14633 1011 1 109.50000 418.400000
1010 14633 1676 1 109.50000 418.400000
1010 14633 2796 1 109.50000 418.400000
1011 14633 1676 1 109.50000 418.400000
1011 14633 2796 1 109.50000 418.400000
1676 14633 2796 1 109.50000 418.400000
8782 14634 10059 1 109.50000 418.400000
8782 14634 10060 1 109.50000 418.400000
8782 14634 10061 1 109.50000 418.400000
10059 14634 10060 1 109.50000 418.400000
10059 14634 10061 1 109.50000 418.400000
10060 14634 10061 1 109.50000 418.400000
5179 14635 7237 1 109.50000 418.400000
5179 14635 9717 1 109.50000 418.400000
5179 14635 10672 1 109.50000 418.400000
7237 14635 9717 1 109.50000 418.400000
7237 14635 10672 1 109.50000 418.400000
9717 14635 10672 1 109.50000 418.400000
1536 14636 5811 1 109.50000 418.400000
1536 14636 8144 1 109.50000 418.400000
1536 14636 10064 1 109.50000 418.400000
5811 14636 8144 1 109.50000 418.400000
5811 14636 10064 1 109.50000 418.400000
8144 14636 10064 1 109.50000 418.400000
2301 14637 4835 1 109.50000 418.400000
2301 14637 9152 1 109.50000 418.400000
2301 14637 9942 1 109.50000 418.400000
4835 14637 9152 1 109.50000 418.400000
4835 14637 9942 1 109.50000 418.400000
9152 14637 9942 1 109.50000 418.400000
1508 14638 7149 1 109.50000 418.400000
1508 14638 10065 1 109.50000 418.400000
1508 14638 10066 1 109.50000 418.400000
7149 14638 10065 1 109.50000 418.400000
7149 14638 10066 1 109.50000 418.400000
10065 14638 10066 1 109.50000 418.400000
474 14639 6309 1 109.50000 418.400000
474 14639 7446 1 109.50000 418.400000
474 14639 10067 1 109.50000 418.400000
6309 14639 7446 1 109.50000 418.400000
6309 14639 10067 1 109.50000 418.400000
7446 14639 10067 1 109.50000 418.400000
3598 14640 8396 1 109.50000 418.400000
3598 14640 9398 1 109.50000 418.400000
3598 14640 9836 1 109.50000 418.400000
8396 14640 9398 1 109.50000 418.400000
8396 14640 9836 1 109.50000 418.400000
9398 14640 9836 1 109.50000 418.400000
1595 14641 2249 1 109.50000 418.400000
1595 14641 2471 1 109.50000 418.400000
1595 14641 8813 1 109.50000 418.400000
2249 14641 2471 1 109.50000 418.400000
2249 14641 8813 1 109.50000 418.400000
2471 14641 8813 1 109.50000 418.400000
2073 14642 3853 1 109.50000 418.400000
2073 14642 4594 1 109.50000 418.400000
2073 14642 6870 1 109.50000 418.400000
3853 14642 4594 1 109.50000 418.400000
3853 14642 6870 1 109.50000 418.400000
4594 14642 6870 1 109.50000 418.400000
7120 14643 7986 1 109.50000 418.400000
7120 14643 9956 1 109.50000 418.400000
7120 14643 10070 1 109.50000 418.400000
7986 14643 9956 1 109.50000 418.400000
7986 14643 10070 1 109.50000 418.400000
9956 14643 10070 1 109.50000 418.400000
4522 14644 4643 1 109.50000 418.400000
4522 14644 6362 1 109.50000 418.400000
4522 14644 10071 1 109.50000 418.400000
4643 14644 6362 1 109.50000 418.400000
4643 14644 10071 1 109.50000 418.400000
6362 14644 10071 1 109.50000 418.400000
4241 14645 9371 1 109.50000 418.400000
4241 14645 10072 1 109.50000 418.400000
4241 14645 10073 1 109.50000 418.400000
9371 14645 10072 1 109.50000 418.400000
9371 14645 10073 1 109.50000 418.400000
10072 14645 10073 1 109.50000 418.400000
1788 14646 5761 1 109.50000 418.400000
1788 14646 5764 1 109.50000 418.400000
1788 14646 10074 1 109.50000 418.400000
5761 14646 5764 1 109.50000 418.400000
5761 14646 10074 1 109.50000 418.400000
5764 14646 10074 1 109.50000 418.400000
1461 14647 5164 1 109.50000 418.400000
1461 14647 8299 1 109.50000 418.400000
1461 14647 10076 1 109.50000 418.400000
5164 14647 8299 1 109.50000 418.400000
5164 14647 10076 1 109.50000 418.400000
8299 14647 10076 1 109.50000 418.400000
1156 14648 10077 1 109.50000 418.400000
1156 14648 10078 1 109.50000 418.400000
1156 14648 10079 1 109.50000 418.400000
10077 14648 10078 1 109.50000 418.400000
10077 14648 10079 1 109.50000 418.400000
10078 14648 10079 1 109.50000 418.400000
5852 14649 8814 1 109.50000 418.400000
5852 14649 9591 1 109.50000 418.400000
5852 14649 9725 1 109.50000 418.400000
8814 14649 9591 1 109.50000 418.400000
8814 14649 9725 1 109.50000 418.400000
9591 14649 9725 1 109.50000 418.400000
8978 14650 9264 1 109.50000 418.400000
8978 14650 9449 1 109.50000 418.400000
8978 14650 9843 1 109.50000 418.400000
9264 14650 9449 1 109.50000 418.400000
9264 14650 9843 1 109.50000 418.400000
9449 14650 9843 1 109.50000 418.400000
5044 14651 6514 1 109.50000 418.400000
5044 14651 7184 1 109.50000 418.400000
5044 14651 9374 1 109.50000 418.400000
6514 14651 7184 1 109.50000 418.400000
6514 14651 9374 1 109.50000 418.400000
7184 14651 9374 1 109.50000 418.400000
1935 14652 6624 1 109.50000 418.400000
1935 14652 6850 1 109.50000 418.400000
1935 14652 9641 1 109.50000 418.400000
6624 14652 6850 1 109.50000 418.400000
6624 14652 9641 1 109.50000 418.400000
6850 14652 9641 1 109.50000 418.400000
4886 14653 7515 1 109.50000 418.400000
4886 14653 9631 1 109.50000 418.400000
4886 14653 10087 1 109.50000 418.400000
7515 14653 9631 1 109.50000 418.400000
7515 14653 10087 1 109.50000 418.400000
9631 14653 10087 1 109.50000 418.400000
5017 14654 5489 1 109.50000 418.400000
5017 14654 9255 1 109.50000 418.400000
5017 14654 10088 1 109.50000 418.400000
5489 14654 9255 1 109.50000 418.400000
5489 14654 10088 1 109.50000 418.400000
9255 14654 10088 1 109.50000 418.400000
2151 14655 6376 1 109.50000 418.400000
2151 14655 7672 1 109.50000 418.400000
2151 14655 10089 1 109.50000 418.400000
6376 14655 7672 1 109.50000 418.400000
6376 14655 10089 1 109.50000 418.400000
7672 14655 10089 1 109.50000 418.400000
5294 14656 8251 1 109.50000 418.400000
5294 14656 9884 1 109.50000 418.400000
5294 14656 10090 1 109.50000 418.400000
8251 14656 9884 1 109.50000 418.400000
8251 14656 10090 1 109.50000 418.400000
9884 14656 10090 1 109.50000 418.400000
2898 14657 7769 1 109.50000 418.400000
2898 14657 9464 1 109.50000 418.400000
2898 14657 9674 1 109.50000 418.400000
7769 14657 9464 1 109.50000 418.400000
7769 14657 9674 1 109.50000 418.400000
9464 14657 9674 1 109.50000 418.400000
7781 14658 9496 1 109.50000 418.400000
7781 14658 10091 1 109.50000 418.400000
7781 14658 10092 1 109.50000 418.400000
9496 14658 10091 1 109.50000 418.400000
9496 14658 10092 1 109.50000 418.400000
10091 14658 10092 1 109.50000 418.400000
9355 14659 9874 1 109.50000 418.400000
9355 14659 10093 1 109.50000 418.400000
9355 14659 10094 1 109.50000 418.400000
9874 14659 10093 1 109.50000 418.400000
9874 14659 10094 1 109.50000 418.400000
10093 14659 10094 1 109.50000 418.400000
5274 14660 8241 1 109.50000 418.400000
5274 14660 10095 1 109.50000 418.400000
5274 14660 10096 1 109.50000 418.400000
8241 14660 10095 1 109.50000 418.400000
8241 14660 10096 1 109.50000 418.400000
10095 14660 10096 1 109.50000 418.400000
4331 14661 8194 1 109.50000 418.400000
4331 14661 9864 1 109.50000 418.400000
4331 14661 10097 1 109.50000 418.400000
8194 14661 9864 1 109.50000 418.400000
8194 14661 10097 1 109.50000 418.400000
9864 14661 10097 1 109.50000 418.400000
2555 14662 4693 1 109.50000 418.400000
2555 14662 9229 1 109.50000 418.400000
2555 14662 9563 1 109.50000 418.400000
4693 14662 9229 1 109.50000 418.400000
4693 14662 9563 1 109.50000 418.400000
9229 14662 9563 1 109.50000 418.400000
5087 14663 7556 1 109.50000 418.400000
5087 14663 8177 1 109.50000 418.400000
5087 14663 8937 1 109.50000 418.400000
7556 14663 8177 1 109.50000 418.400000
7556 14663 8937 1 109.50000 418.400000
8177 14663 8937 1 109.50000 418.400000
4506 14664 6256 1 109.50000 418.400000
4506 14664 8279 1 109.50000 418.400000
4506 14664 8339 1 109.50000 418.400000
6256 14664 8279 1 109.50000 418.400000
6256 14664 8339 1 109.50000 418.400000
8279 14664 8339 1 109.50000 418.400000
8076 14665 8637 1 109.50000 418.400000
8076 14665 8638 1 109.50000 418.400000
8076 14665 8639 1 109.50000 418.400000
8637 14665 8638 1 109.50000 418.400000
8637 14665 8639 1 109.50000 418.400000
8638 14665 8639 1 109.50000 418.400000
3615 14666 10098 1 109.50000 418.400000
3615 14666 10099 1 109.50000 418.400000
3615 14666 10100 1 109.50000 418.400000
10098 14666 10099 1 109.50000 418.400000
10098 14666 10100 1 109.50000 418.400000
10099 14666 10100 1 109.50000 418.400000
5529 14667 6018 1 109.50000 418.400000
5529 14667 8936 1 109.50000 418.400000
5529 14667 10101 1 109.50000 418.400000
6018 14667 8936 1 109.50000 418.400000
6018 14667 10101 1 109.50000 418.400000
8936 14667 10101 1 109.50000 418.400000
2955 14668 4387 1 109.50000 418.400000
2955 14668 10102 1 109.50000 418.400000
2955 14668 10103 1 109.50000 418.400000
4387 14668 10102 1 109.50000 418.400000
4387 14668 10103 1 109.50000 418.400000
10102 14668 10103 1 109.50000 418.400000
670 14669 4937 1 109.50000 418.400000
670 14669 4939 1 109.50000 418.400000
670 14669 9314 1 109.50000 418.400000
4937 14669 4939 1 109.50000 418.400000
4937 14669 9314 1 109.50000 418.400000
4939 14669 9314 1 109.50000 418.400000
763 14670 4095 1 109.50000 418.400000
763 14670 9273 1 109.50000 418.400000
763 14670 10106 1 109.50000 418.400000
4095 14670 9273 1 109.50000 418.400000
4095 14670 10106 1 109.50000 418.400000
9273 14670 10106 1 109.50000 418.400000
3163 14671 5783 1 109.50000 418.400000
3163 14671 9071 1 109.50000 418.400000
3163 14671 10107 1 109.50000 418.400000
5783 14671 9071 1 109.50000 418.400000
5783 14671 10107 1 109.50000 418.400000
9071 14671 10107 1 109.50000 418.400000
2264 14672 4328 1 109.50000 418.400000
2264 14672 10108 1 109.50000 418.400000
2264 14672 10109 1 109.50000 418.400000
4328 14672 10108 1 109.50000 418.400000
4328 14672 10109 1 109.50000 418.400000
10108 14672 10109 1 109.50000 418.400000
9097 14673 9564 1 109.50000 418.400000
9097 14673 10110 1 109.50000 418.400000
9097 14673 10111 1 109.50000 418.400000
9564 14673 10110 1 109.50000 418.400000
9564 14673 10111 1 109.50000 418.400000
10110 14673 10111 1 109.50000 418.400000
1383 14674 8673 1 109.50000 418.400000
1383 14674 10112 1 109.50000 418.400000
1383 14674 10113 1 109.50000 418.400000
8673 14674 10112 1 109.50000 418.400000
8673 14674 10113 1 109.50000 418.400000
10112 14674 10113 1 109.50000 418.400000
2775 14675 8475 1 109.50000 418.400000
2775 14675 9067 1 109.50000 418.400000
2775 14675 10114 1 109.50000 418.400000
8475 14675 9067 1 109.50000 418.400000
8475 14675 10114 1 109.50000 418.400000
9067 14675 10114 1 109.50000 418.400000
2939 14676 10000 1 109.50000 418.400000
2939 14676 10115 1 109.50000 418.400000
2939 14676 10116 1 109.50000 418.400000
10000 14676 10115 1 109.50000 418.400000
10000 14676 10116 1 109.50000 418.400000
10115 14676 10116 1 109.50000 418.400000
28 14677 1208 1 109.50000 418.400000
28 14677 10117 1 109.50000 418.400000
28 14677 10118 1 109.50000 418.400000
1208 14677 10117 1 109.50000 418.400000
1208 14677 10118 1 109.50000 418.400000
10117 14677 10118 1 109.50000 418.400000
1367 14678 5744 1 109.50000 418.400000
1367 14678 8355 1 109.50000 418.400000
1367 14678 8558 1 109.50000 418.400000
5744 14678 8355 1 109.50000 418.400000
5744 14678 8558 1 109.50000 418.400000
8355 14678 8558 1 109.50000 418.400000
1441 14679 4269 1 109.50000 418.400000
1441 14679 9981 1 109.50000 418.400000
1441 14679 10120 1 109.50000 418.400000
4269 14679 9981 1 109.50000 418.400000
4269 14679 10120 1 109.50000 418.400000
9981 14679 10120 1 109.50000 418.400000
3507 14680 7330 1 109.50000 418.400000
3507 14680 8286 1 109.50000 418.400000
3507 14680 9267 1 109.50000 418.400000
7330 14680 8286 1 109.50000 418.400000
7330 14680 9267 1 109.50000 418.400000
8286 14680 9267 1 109.50000 418.400000
2801 14681 4187 1 109.50000 418.400000
2801 14681 9736 1 109.50000 418.400000
2801 14681 10122 1 109.50000 418.400000
4187 14681 9736 1 109.50000 418.400000
4187 14681 10122 1 109.50000 418.400000
9736 14681 10122 1 109.50000 418.400000
3822 14682 5243 1 109.50000 418.400000
3822 14682 9343 1 109.50000 418.400000
3822 14682 10123 1 109.50000 418.400000
5243 14682 9343 1 109.50000 418.400000
5243 14682 10123 1 109.50000 418.400000
9343 14682 10123 1 109.50000 418.400000
148 14683 150 1 109.50000 418.400000
148 14683 1489 1 109.50000 418.400000
148 14683 7074 1 109.50000 418.400000
150 14683 1489 1 109.50000 418.400000
150 14683 7074 1 109.50000 418.400000
1489 14683 7074 1 109.50000 418.400000
8055 14684 10010 1 109.50000 418.400000
8055 14684 10125 1 109.50000 418.400000
8055 14684 10126 1 109.50000 418.400000
10010 14684 10125 1 109.50000 418.400000
10010 14684 10126 1 109.50000 418.400000
10125 14684 10126 1 109.50000 418.400000
3512 14685 4572 1 109.50000 418.400000
3512 14685 8833 1 109.50000 418.400000
3512 14685 10127 1 109.50000 418.400000
4572 14685 8833 1 109.50000 418.400000
4572 14685 10127 1 109.50000 418.400000
8833 14685 10127 1 109.50000 418.400000
2774 14686 4824 1 109.50000 418.400000
2774 14686 8269 1 109.50000 418.400000
2774 14686 10128 1 109.50000 418.400000
4824 14686 8269 1 109.50000 418.400000
4824 14686 10128 1 109.50000 418.400000
8269 14686 10128 1 109.50000 418.400000
6682 14687 7617 1 109.50000 418.400000
6682 14687 8455 1 109.50000 418.400000
6682 14687 9870 1 109.50000 418.400000
7617 14687 8455 1 109.50000 418.400000
7617 14687 9870 1 109.50000 418.400000
8455 14687 9870 1 109.50000 418.400000
1072 14688 8724 1 109.50000 418.400000
1072 14688 10129 1 109.50000 418.400000
1072 14688 10130 1 109.50000 418.400000
8724 14688 10129 1 109.50000 418.400000
8724 14688 10130 1 109.50000 418.400000
10129 14688 10130 1 109.50000 418.400000
3659 14689 3663 1 109.50000 418.400000
3659 14689 9347 1 109.50000 418.400000
3659 14689 10131 1 109.50000 418.400000
3663 14689 9347 1 109.50000 418.400000
3663 14689 10131 1 109.50000 418.400000
9347 14689 10131 1 109.50000 418.400000
10132 14690 10133 1 109.50000 418.400000
10132 14690 10134 1 109.50000 418.400000
10132 14690 10135 1 109.50000 418.400000
10133 14690 10134 1 109.50000 418.400000
10133 14690 10135 1 109.50000 418.400000
10134 14690 10135 1 109.50000 418.400000
7808 14691 8759 1 109.50000 418.400000
7808 14691 9331 1 109.50000 418.400000
7808 14691 10136 1 109.50000 418.400000
8759 14691 9331 1 109.50000 418.400000
8759 14691 10136 1 109.50000 418.400000
9331 14691 10136 1 109.50000 418.400000
1402 14692 4903 1 109.50000 418.400000
1402 14692 10110 1 109.50000 418.400000
1402 14692 10137 1 109.50000 418.400000
4903 14692 10110 1 109.50000 418.400000
4903 14692 10137 1 109.50000 418.400000
10110 14692 10137 1 109.50000 418.400000
2038 14693 6699 1 109.50000 418.400000
2038 14693 10118 1 109.50000 418.400000
2038 14693 10138 1 109.50000 418.400000
6699 14693 10118 1 109.50000 418.400000
6699 14693 10138 1 109.50000 418.400000
10118 14693 10138 1 109.50000 418.400000
2987 14694 7606 1 109.50000 418.400000
2987 14694 7673 1 109.50000 418.400000
2987 14694 10114 1 109.50000 418.400000
7606 14694 7673 1 109.50000 418.400000
7606 14694 10114 1 109.50000 418.400000
7673 14694 10114 1 109.50000 418.400000
1478 14695 1918 1 109.50000 418.400000
1478 14695 7912 1 109.50000 418.400000
1478 14695 10139 1 109.50000 418.400000
1918 14695 7912 1 109.50000 418.400000
1918 14695 10139 1 109.50000 418.400000
7912 14695 10139 1 109.50000 418.400000
4151 14696 5884 1 109.50000 418.400000
4151 14696 8645 1 109.50000 418.400000
4151 14696 10021 1 109.50000 418.400000
5884 14696 8645 1 109.50000 418.400000
5884 14696 10021 1 109.50000 418.400000
8645 14696 10021 1 109.50000 418.400000
672 14697 6966 1 109.50000 418.400000
672 14697 7069 1 109.50000 418.400000
672 14697 10094 1 109.50000 418.400000
6966 14697 7069 1 109.50000 418.400000
6966 14697 10094 1 109.50000 418.400000
7069 14697 10094 1 109.50000 418.400000
2938 14698 7391 1 109.50000 418.400000
2938 14698 8983 1 109.50000 418.400000
2938 14698 10142 1 109.50000 418.400000
7391 14698 8983 1 109.50000 418.400000
7391 14698 10142 1 109.50000 418.400000
8983 14698 10142 1 109.50000 418.400000
3643 14699 10145 1 109.50000 418.400000
3643 14699 10146 1 109.50000 418.400000
3643 14699 10147 1 109.50000 418.400000
10145 14699 10146 1 109.50000 418.400000
10145 14699 10147 1 109.50000 418.400000
10146 14699 10147 1 109.50000 418.400000
4966 14700 6647 1 109.50000 418.400000
4966 14700 9544 1 109.50000 418.400000
4966 14700 9592 1 109.50000 418.400000
6647 14700 9544 1 109.50000 418.400000
6647 14700 9592 1 109.50000 418.400000
9544 14700 9592 1 109.50000 418.400000
4796 14701 4803 1 109.50000 418.400000
4796 14701 8838 1 109.50000 418.400000
4796 14701 10151 1 109.50000 418.400000
4803 14701 8838 1 109.50000 418.400000
4803 14701 10151 1 109.50000 418.400000
8838 14701 10151 1 109.50000 418.400000
3241 14702 5109 1 109.50000 418.400000
3241 14702 6990 1 109.50000 418.400000
3241 14702 10152 1 109.50000 418.400000
5109 14702 6990 1 109.50000 418.400000
5109 14702 10152 1 109.50000 418.400000
6990 14702 10152 1 109.50000 418.400000
4714 14703 5147 1 109.50000 418.400000
4714 14703 8135 1 109.50000 418.400000
4714 14703 9758 1 109.50000 418.400000
5147 14703 8135 1 109.50000 418.400000
5147 14703 9758 1 109.50000 418.400000
8135 14703 9758 1 109.50000 418.400000
7730 14704 8908 1 109.50000 418.400000
7730 14704 10153 1 109.50000 418.400000
7730 14704 10154 1 109.50000 418.400000
8908 14704 10153 1 109.50000 418.400000
8908 14704 10154 1 109.50000 418.400000
10153 14704 10154 1 109.50000 418.400000
1749 14705 5021 1 109.50000 418.400000
1749 14705 6740 1 109.50000 418.400000
1749 14705 10155 1 109.50000 418.400000
5021 14705 6740 1 109.50000 418.400000
5021 14705 10155 1 109.50000 418.400000
6740 14705 10155 1 109.50000 418.400000
6730 14706 7205 1 109.50000 418.400000
6730 14706 8646 1 109.50000 418.400000
6730 14706 10157 1 109.50000 418.400000
7205 14706 8646 1 109.50000 418.400000
7205 14706 10157 1 109.50000 418.400000
8646 14706 10157 1 109.50000 418.400000
202 14707 204 1 109.50000 418.400000
202 14707 9061 1 109.50000 418.400000
202 14707 10158 1 109.50000 418.400000
204 14707 9061 1 109.50000 418.400000
204 14707 10158 1 109.50000 418.400000
9061 14707 10158 1 109.50000 418.400000
1691 14708 7476 1 109.50000 418.400000
1691 14708 7658 1 109.50000 418.400000
1691 14708 10159 1 109.50000 418.400000
7476 14708 7658 1 109.50000 418.400000
7476 14708 10159 1 109.50000 418.400000
7658 14708 10159 1 109.50000 418.400000
3558 14709 6982 1 109.50000 418.400000
3558 14709 9039 1 109.50000 418.400000
3558 14709 10160 1 109.50000 418.400000
6982 14709 9039 1 109.50000 418.400000
6982 14709 10160 1 109.50000 418.400000
9039 14709 10160 1 109.50000 418.400000
1551 14710 6919 1 109.50000 418.400000
1551 14710 7629 1 109.50000 418.400000
1551 14710 9916 1 109.50000 418.400000
6919 14710 7629 1 109.50000 418.400000
6919 14710 9916 1 109.50000 418.400000
7629 14710 9916 1 109.50000 418.400000
1169 14711 8083 1 109.50000 418.400000
1169 14711 10161 1 109.50000 418.400000
1169 14711 10162 1 109.50000 418.400000
8083 14711 10161 1 109.50000 418.400000
8083 14711 10162 1 109.50000 418.400000
10161 14711 10162 1 109.50000 418.400000
1710 14712 4872 1 109.50000 418.400000
1710 14712 10163 1 109.50000 418.400000
1710 14712 10164 1 109.50000 418.400000
4872 14712 10163 1 109.50000 418.400000
4872 14712 10164 1 109.50000 418.400000
10163 14712 10164 1 109.50000 418.400000
2900 14713 4765 1 109.50000 418.400000
2900 14713 7051 1 109.50000 418.400000
2900 14713 9490 1 109.50000 418.400000
4765 14713 7051 1 109.50000 418.400000
4765 14713 9490 1 109.50000 418.400000
7051 14713 9490 1 109.50000 418.400000
1807 14714 4537 1 109.50000 418.400000
1807 14714 8134 1 109.50000 418.400000
1807 14714 10166 1 109.50000 418.400000
4537 14714 8134 1 109.50000 418.400000
4537 14714 10166 1 109.50000 418.400000
8134 14714 10166 1 109.50000 418.400000
3160 14715 6509 1 109.50000 418.400000
3160 14715 8478 1 109.50000 418.400000
3160 14715 10167 1 109.50000 418.400000
6509 14715 8478 1 109.50000 418.400000
6509 14715 10167 1 109.50000 418.400000
8478 14715 10167 1 109.50000 418.400000
4874 14716 7305 1 109.50000 418.400000
4874 14716 10168 1 109.50000 418.400000
4874 14716 10169 1 109.50000 418.400000
7305 14716 10168 1 109.50000 418.400000
7305 14716 10169 1 109.50000 418.400000
10168 14716 10169 1 109.50000 418.400000
4494 14717 8043 1 109.50000 418.400000
4494 14717 8044 1 109.50000 418.400000
4494 14717 11184 1 109.50000 418.400000
8043 14717 8044 1 109.50000 418.400000
8043 14717 11184 1 109.50000 418.400000
8044 14717 11184 1 109.50000 418.400000
8955 14718 9466 1 109.50000 418.400000
8955 14718 9865 1 109.50000 418.400000
8955 14718 10170 1 109.50000 418.400000
9466 14718 9865 1 109.50000 418.400000
9466 14718 10170 1 109.50000 418.400000
9865 14718 10170 1 109.50000 418.400000
2491 14719 2492 1 109.50000 418.400000
2491 14719 10120 1 109.50000 418.400000
2491 14719 10171 1 109.50000 418.400000
2492 14719 10120 1 109.50000 418.400000
2492 14719 10171 1 109.50000 418.400000
10120 14719 10171 1 109.50000 418.400000
6482 14720 7424 1 109.50000 418.400000
6482 14720 10172 1 109.50000 418.400000
6482 14720 10173 1 109.50000 418.400000
7424 14720 10172 1 109.50000 418.400000
7424 14720 10173 1 109.50000 418.400000
10172 14720 10173 1 109.50000 418.400000
2024 14721 2230 1 109.50000 418.400000
2024 14721 9915 1 109.50000 418.400000
2024 14721 10174 1 109.50000 418.400000
2230 14721 9915 1 109.50000 418.400000
2230 14721 10174 1 109.50000 418.400000
9915 14721 10174 1 109.50000 418.400000
8667 14722 10175 1 109.50000 418.400000
8667 14722 10176 1 109.50000 418.400000
8667 14722 10698 1 109.50000 418.400000
10175 14722 10176 1 109.50000 418.400000
10175 14722 10698 1 109.50000 418.400000
10176 14722 10698 1 109.50000 418.400000
8191 14723 9515 1 109.50000 418.400000
8191 14723 10071 1 109.50000 418.400000
8191 14723 10177 1 109.50000 418.400000
9515 14723 10071 1 109.50000 418.400000
9515 14723 10177 1 109.50000 418.400000
10071 14723 10177 1 109.50000 418.400000
2813 14724 10178 1 109.50000 418.400000
2813 14724 10179 1 109.50000 418.400000
2813 14724 10180 1 109.50000 418.400000
10178 14724 10179 1 109.50000 418.400000
10178 14724 10180 1 109.50000 418.400000
10179 14724 10180 1 109.50000 418.400000
2552 14725 6563 1 109.50000 418.400000
2552 14725 8620 1 109.50000 418.400000
2552 14725 9635 1 109.50000 418.400000
6563 14725 8620 1 109.50000 418.400000
6563 14725 9635 1 109.50000 418.400000
8620 14725 9635 1 109.50000 418.400000
10116 14726 10129 1 109.50000 418.400000
10116 14726 10181 1 109.50000 418.400000
10116 14726 10182 1 109.50000 418.400000
10129 14726 10181 1 109.50000 418.400000
10129 14726 10182 1 109.50000 418.400000
10181 14726 10182 1 109.50000 418.400000
8685 14727 9800 1 109.50000 418.400000
8685 14727 10183 1 109.50000 418.400000
8685 14727 10184 1 109.50000 418.400000
9800 14727 10183 1 109.50000 418.400000
9800 14727 10184 1 109.50000 418.400000
10183 14727 10184 1 109.50000 418.400000
689 14728 1731 1 109.50000 418.400000
689 14728 3421 1 109.50000 418.400000
689 14728 10186 1 109.50000 418.400000
1731 14728 3421 1 109.50000 418.400000
1731 14728 10186 1 109.50000 418.400000
3421 14728 10186 1 109.50000 418.400000
2002 14729 4710 1 109.50000 418.400000
2002 14729 10187 1 109.50000 418.400000
2002 14729 10188 1 109.50000 418.400000
4710 14729 10187 1 109.50000 418.400000
4710 14729 10188 1 109.50000 418.400000
10187 14729 10188 1 109.50000 418.400000
175 14730 5843 1 109.50000 418.400000
175 14730 9271 1 109.50000 418.400000
175 14730 11176 1 109.50000 418.400000
5843 14730 9271 1 109.50000 418.400000
5843 14730 11176 1 109.50000 418.400000
9271 14730 11176 1 109.50000 418.400000
9547 14731 9621 1 109.50000 418.400000
9547 14731 10055 1 109.50000 418.400000
9547 14731 10189 1 109.50000 418.400000
9621 14731 10055 1 109.50000 418.400000
9621 14731 10189 1 109.50000 418.400000
10055 14731 10189 1 109.50000 418.400000
8415 14732 8662 1 109.50000 418.400000
8415 14732 10190 1 109.50000 418.400000
8415 14732 10191 1 109.50000 418.400000
8662 14732 10190 1 109.50000 418.400000
8662 14732 10191 1 109.50000 418.400000
10190 14732 10191 1 109.50000 418.400000
2918 14733 5617 1 109.50000 418.400000
2918 14733 10192 1 109.50000 418.400000
2918 14733 10193 1 109.50000 418.400000
5617 14733 10192 1 109.50000 418.400000
5617 14733 10193 1 109.50000 418.400000
10192 14733 10193 1 109.50000 418.400000
5610 14734 9176 1 109.50000 418.400000
5610 14734 10194 1 109.50000 418.400000
5610 14734 11022 1 109.50000 418.400000
9176 14734 10194 1 109.50000 418.400000
9176 14734 11022 1 109.50000 418.400000
10194 14734 11022 1 109.50000 418.400000
2582 14735 6198 1 109.50000 418.400000
2582 14735 10196 1 109.50000 418.400000
2582 14735 10197 1 109.50000 418.400000
6198 14735 10196 1 109.50000 418.400000
6198 14735 10197 1 109.50000 418.400000
10196 14735 10197 1 109.50000 418.400000
5929 14736 7029 1 109.50000 418.400000
5929 14736 9046 1 109.50000 418.400000
5929 14736 10198 1 109.50000 418.400000
7029 14736 9046 1 109.50000 418.400000
7029 14736 10198 1 109.50000 418.400000
9046 14736 10198 1 109.50000 418.400000
564 14737 7340 1 109.50000 418.400000
564 14737 9666 1 109.50000 418.400000
564 14737 10200 1 109.50000 418.400000
7340 14737 9666 1 109.50000 418.400000
7340 14737 10200 1 109.50000 418.400000
9666 14737 10200 1 109.50000 418.400000
8586 14738 9502 1 109.50000 418.400000
8586 14738 10201 1 109.50000 418.400000
8586 14738 10202 1 109.50000 418.400000
9502 14738 10201 1 109.50000 418.400000
9502 14738 10202 1 109.50000 418.400000
10201 14738 10202 1 109.50000 418.400000
324 14739 6293 1 109.50000 418.400000
324 14739 7527 1 109.50000 418.400000
324 14739 10203 1 109.50000 418.400000
6293 14739 7527 1 109.50000 418.400000
6293 14739 10203 1 109.50000 418.400000
7527 14739 10203 1 109.50000 418.400000
829 14740 5508 1 109.50000 418.400000
829 14740 7013 1 109.50000 418.400000
829 14740 10204 1 109.50000 418.400000
5508 14740 7013 1 109.50000 418.400000
5508 14740 10204 1 109.50000 418.400000
7013 14740 10204 1 109.50000 418.400000
3496 14741 5793 1 109.50000 418.400000
3496 14741 9980 1 109.50000 418.400000
3496 14741 10205 1 109.50000 418.400000
5793 14741 9980 1 109.50000 418.400000
5793 14741 10205 1 109.50000 418.400000
9980 14741 10205 1 109.50000 418.400000
1297 14742 1786 1 109.50000 418.400000
1297 14742 8748 1 109.50000 418.400000
1297 14742 8751 1 109.50000 418.400000
1786 14742 8748 1 109.50000 418.400000
1786 14742 8751 1 109.50000 418.400000
8748 14742 8751 1 109.50000 418.400000
4141 14743 10206 1 109.50000 418.400000
4141 14743 10207 1 109.50000 418.400000
4141 14743 10208 1 109.50000 418.400000
10206 14743 10207 1 109.50000 418.400000
10206 14743 10208 1 109.50000 418.400000
10207 14743 10208 1 109.50000 418.400000
2573 14744 7282 1 109.50000 418.400000
2573 14744 10209 1 109.50000 418.400000
2573 14744 10210 1 109.50000 418.400000
7282 14744 10209 1 109.50000 418.400000
7282 14744 10210 1 109.50000 418.400000
10209 14744 10210 1 109.50000 418.400000
3808 14745 6865 1 109.50000 418.400000
3808 14745 10211 1 109.50000 418.400000
3808 14745 10212 1 109.50000 418.400000
6865 14745 10211 1 109.50000 418.400000
6865 14745 10212 1 109.50000 418.400000
10211 14745 10212 1 109.50000 418.400000
5730 14746 6508 1 109.50000 418.400000
5730 14746 10214 1 109.50000 418.400000
5730 14746 10215 1 109.50000 418.400000
6508 14746 10214 1 109.50000 418.400000
6508 14746 10215 1 109.50000 418.400000
10214 14746 10215 1 109.50000 418.400000
7145 14747 8176 1 109.50000 418.400000
7145 14747 8599 1 109.50000 418.400000
7145 14747 10216 1 109.50000 418.400000
8176 14747 8599 1 109.50000 418.400000
8176 14747 10216 1 109.50000 418.400000
8599 14747 10216 1 109.50000 418.400000
4162 14748 8999 1 109.50000 418.400000
4162 14748 9114 1 109.50000 418.400000
4162 14748 10217 1 109.50000 418.400000
8999 14748 9114 1 109.50000 418.400000
8999 14748 10217 1 109.50000 418.400000
9114 14748 10217 1 109.50000 418.400000
9366 14749 9918 1 109.50000 418.400000
9366 14749 10218 1 109.50000 418.400000
9366 14749 10219 1 109.50000 418.400000
9918 14749 10218 1 109.50000 418.400000
9918 14749 10219 1 109.50000 418.400000
10218 14749 10219 1 109.50000 418.400000
7835 14750 10220 1 109.50000 418.400000
7835 14750 10221 1 109.50000 418.400000
7835 14750 10222 1 109.50000 418.400000
10220 14750 10221 1 109.50000 418.400000
10220 14750 10222 1 109.50000 418.400000
10221 14750 10222 1 109.50000 418.400000
2063 14751 2912 1 109.50000 418.400000
2063 14751 4049 1 109.50000 418.400000
2063 14751 10223 1 109.50000 418.400000
2912 14751 4049 1 109.50000 418.400000
2912 14751 10223 1 109.50000 418.400000
4049 14751 10223 1 109.50000 418.400000
337 14752 9438 1 109.50000 418.400000
337 14752 9681 1 109.50000 418.400000
337 14752 10224 1 109.50000 418.400000
9438 14752 9681 1 109.50000 418.400000
9438 14752 10224 1 109.50000 418.400000
9681 14752 10224 1 109.50000 418.400000
6911 14753 10225 1 109.50000 418.400000
6911 14753 10226 1 109.50000 418.400000
6911 14753 10227 1 109.50000 418.400000
10225 14753 10226 1 109.50000 418.400000
10225 14753 10227 1 109.50000 418.400000
10226 14753 10227 1 109.50000 418.400000
2677 14754 4234 1 109.50000 418.400000
2677 14754 7831 1 109.50000 418.400000
2677 14754 10228 1 109.50000 418.400000
4234 14754 7831 1 109.50000 418.400000
4234 14754 10228 1 109.50000 418.400000
7831 14754 10228 1 109.50000 418.400000
6936 14755 8288 1 109.50000 418.400000
6936 14755 9824 1 109.50000 418.400000
6936 14755 10231 1 109.50000 418.400000
8288 14755 9824 1 109.50000 418.400000
8288 14755 10231 1 109.50000 418.400000
9824 14755 10231 1 109.50000 418.400000
5588 14756 9684 1 109.50000 418.400000
5588 14756 10232 1 109.50000 418.400000
5588 14756 10233 1 109.50000 418.400000
9684 14756 10232 1 109.50000 418.400000
9684 14756 10233 1 109.50000 418.400000
10232 14756 10233 1 109.50000 418.400000
9535 14757 9571 1 109.50000 418.400000
9535 14757 10234 1 109.50000 418.400000
9535 14757 10235 1 109.50000 418.400000
9571 14757 10234 1 109.50000 418.400000
9571 14757 10235 1 109.50000 418.400000
10234 14757 10235 1 109.50000 418.400000
3807 14758 3965 1 109.50000 418.400000
3807 14758 10236 1 109.50000 418.400000
3807 14758 10237 1 109.50000 418.400000
3965 14758 10236 1 109.50000 418.400000
3965 14758 10237 1 109.50000 418.400000
10236 14758 10237 1 109.50000 418.400000
930 14759 6904 1 109.50000 418.400000
930 14759 7923 1 109.50000 418.400000
930 14759 8626 1 109.50000 418.400000
6904 14759 7923 1 109.50000 418.400000
6904 14759 8626 1 109.50000 418.400000
7923 14759 8626 1 109.50000 418.400000
346 14760 9214 1 109.50000 418.400000
346 14760 10240 1 109.50000 418.400000
346 14760 10241 1 109.50000 418.400000
9214 14760 10240 1 109.50000 418.400000
9214 14760 10241 1 109.50000 418.400000
10240 14760 10241 1 109.50000 418.400000
1560 14761 8325 1 109.50000 418.400000
1560 14761 10242 1 109.50000 418.400000
1560 14761 10243 1 109.50000 418.400000
8325 14761 10242 1 109.50000 418.400000
8325 14761 10243 1 109.50000 418.400000
10242 14761 10243 1 109.50000 418.400000
715 14762 3617 1 109.50000 418.400000
715 14762 4542 1 109.50000 418.400000
715 14762 10244 1 109.50000 418.400000
3617 14762 4542 1 109.50000 418.400000
3617 14762 10244 1 109.50000 418.400000
4542 14762 10244 1 109.50000 418.400000
3307 14763 3830 1 109.50000 418.400000
3307 14763 4574 1 109.50000 418.400000
3307 14763 4914 1 109.50000 418.400000
3830 14763 4574 1 109.50000 418.400000
3830 14763 4914 1 109.50000 418.400000
4574 14763 4914 1 109.50000 418.400000
119 14764 8154 1 109.50000 418.400000
119 14764 8156 1 109.50000 418.400000
119 14764 10245 1 109.50000 418.400000
8154 14764 8156 1 109.50000 418.400000
8154 14764 10245 1 109.50000 418.400000
8156 14764 10245 1 109.50000 418.400000
1243 14765 8926 1 109.50000 418.400000
1243 14765 9925 1 109.50000 418.400000
1243 14765 10246 1 109.50000 418.400000
8926 14765 9925 1 109.50000 418.400000
8926 14765 10246 1 109.50000 418.400000
9925 14765 10246 1 109.50000 418.400000
1409 14766 1410 1 109.50000 418.400000
1409 14766 9559 1 109.50000 418.400000
1409 14766 10247 1 109.50000 418.400000
1410 14766 9559 1 109.50000 418.400000
1410 14766 10247 1 109.50000 418.400000
9559 14766 10247 1 109.50000 418.400000
1131 14767 6727 1 109.50000 418.400000
1131 14767 10248 1 109.50000 418.400000
1131 14767 10249 1 109.50000 418.400000
6727 14767 10248 1 109.50000 418.400000
6727 14767 10249 1 109.50000 418.400000
10248 14767 10249 1 109.50000 418.400000
3466 14768 8070 1 109.50000 418.400000
3466 14768 9893 1 109.50000 418.400000
3466 14768 10250 1 109.50000 418.400000
8070 14768 9893 1 109.50000 418.400000
8070 14768 10250 1 109.50000 418.400000
9893 14768 10250 1 109.50000 418.400000
3660 14769 9848 1 109.50000 418.400000
3660 14769 10251 1 109.50000 418.400000
3660 14769 10252 1 109.50000 418.400000
9848 14769 10251 1 109.50000 418.400000
9848 14769 10252 1 109.50000 418.400000
10251 14769 10252 1 109.50000 418.400000
1704 14770 8189 1 109.50000 418.400000
1704 14770 10253 1 109.50000 418.400000
1704 14770 10254 1 109.50000 418.400000
8189 14770 10253 1 109.50000 418.400000
8189 14770 10254 1 109.50000 418.400000
10253 14770 10254 1 109.50000 418.400000
2020 14771 4352 1 109.50000 418.400000
2020 14771 7594 1 109.50000 418.400000
2020 14771 8898 1 109.50000 418.400000
4352 14771 7594 1 109.50000 418.400000
4352 14771 8898 1 109.50000 418.400000
7594 14771 8898 1 109.50000 418.400000
3044 14772 6281 1 109.50000 418.400000
3044 14772 10112 1 109.50000 418.400000
3044 14772 10255 1 109.50000 418.400000
6281 14772 10112 1 109.50000 418.400000
6281 14772 10255 1 109.50000 418.400000
10112 14772 10255 1 109.50000 418.400000
7152 14773 9463 1 109.50000 418.400000
7152 14773 10256 1 109.50000 418.400000
7152 14773 10257 1 109.50000 418.400000
9463 14773 10256 1 109.50000 418.400000
9463 14773 10257 1 109.50000 418.400000
10256 14773 10257 1 109.50000 418.400000
5499 14774 5731 1 109.50000 418.400000
5499 14774 8074 1 109.50000 418.400000
5499 14774 9498 1 109.50000 418.400000
5731 14774 8074 1 109.50000 418.400000
5731 14774 9498 1 109.50000 418.400000
8074 14774 9498 1 109.50000 418.400000
7110 14775 8881 1 109.50000 418.400000
7110 14775 9712 1 109.50000 418.400000
7110 14775 10258 1 109.50000 418.400000
8881 14775 9712 1 109.50000 418.400000
8881 14775 10258 1 109.50000 418.400000
9712 14775 10258 1 109.50000 418.400000
80 14776 9024 1 109.50000 418.400000
80 14776 9662 1 109.50000 418.400000
80 14776 9698 1 109.50000 418.400000
9024 14776 9662 1 109.50000 418.400000
9024 14776 9698 1 109.50000 418.400000
9662 14776 9698 1 109.50000 418.400000
8717 14777 9477 1 109.50000 418.400000
8717 14777 10260 1 109.50000 418.400000
8717 14777 10261 1 109.50000 418.400000
9477 14777 10260 1 109.50000 418.400000
9477 14777 10261 1 109.50000 418.400000
10260 14777 10261 1 109.50000 418.400000
358 14778 3823 1 109.50000 418.400000
358 14778 9796 1 109.50000 418.400000
358 14778 10262 1 109.50000 418.400000
3823 14778 9796 1 109.50000 418.400000
3823 14778 10262 1 109.50000 418.400000
9796 14778 10262 1 109.50000 418.400000
1463 14779 8906 1 109.50000 418.400000
1463 14779 10263 1 109.50000 418.400000
1463 14779 10264 1 109.50000 418.400000
8906 14779 10263 1 109.50000 418.400000
8906 14779 10264 1 109.50000 418.400000
10263 14779 10264 1 109.50000 418.400000
3995 14780 6071 1 109.50000 418.400000
3995 14780 10265 1 109.50000 418.400000
3995 14780 11209 1 109.50000 418.400000
6071 14780 10265 1 109.50000 418.400000
6071 14780 11209 1 109.50000 418.400000
10265 14780 11209 1 109.50000 418.400000
3055 14781 5891 1 109.50000 418.400000
3055 14781 10266 1 109.50000 418.400000
3055 14781 10267 1 109.50000 418.400000
5891 14781 10266 1 109.50000 418.400000
5891 14781 10267 1 109.50000 418.400000
10266 14781 10267 1 109.50000 418.400000
6246 14782 9967 1 109.50000 418.400000
6246 14782 10268 1 109.50000 418.400000
6246 14782 10269 1 109.50000 418.400000
9967 14782 10268 1 109.50000 418.400000
9967 14782 10269 1 109.50000 418.400000
10268 14782 10269 1 109.50000 418.400000
1467 14783 1709 1 109.50000 418.400000
1467 14783 6817 1 109.50000 418.400000
1467 14783 8200 1 109.50000 418.400000
1709 14783 6817 1 109.50000 418.400000
1709 14783 8200 1 109.50000 418.400000
6817 14783 8200 1 109.50000 418.400000
6927 14784 8877 1 109.50000 418.400000
6927 14784 10270 1 109.50000 418.400000
6927 14784 10271 1 109.50000 418.400000
8877 14784 10270 1 109.50000 418.400000
8877 14784 10271 1 109.50000 418.400000
10270 14784 10271 1 109.50000 418.400000
6436 14785 6949 1 109.50000 418.400000
6436 14785 8390 1 109.50000 418.400000
6436 14785 10273 1 109.50000 418.400000
6949 14785 8390 1 109.50000 418.400000
6949 14785 10273 1 109.50000 418.400000
8390 14785 10273 1 109.50000 418.400000
3875 14786 4255 1 109.50000 418.400000
3875 14786 9754 1 109.50000 418.400000
3875 14786 10088 1 109.50000 418.400000
4255 14786 9754 1 109.50000 418.400000
4255 14786 10088 1 109.50000 418.400000
9754 14786 10088 1 109.50000 418.400000
1549 14787 3715 1 109.50000 418.400000
1549 14787 3791 1 109.50000 418.400000
1549 14787 6576 1 109.50000 418.400000
3715 14787 3791 1 109.50000 418.400000
3715 14787 6576 1 109.50000 418.400000
3791 14787 6576 1 109.50000 418.400000
251 14788 1712 1 109.50000 418.400000
251 14788 9190 1 109.50000 418.400000
251 14788 10274 1 109.50000 418.400000
1712 14788 9190 1 109.50000 418.400000
1712 14788 10274 1 109.50000 418.400000
9190 14788 10274 1 109.50000 418.400000
4958 14789 6285 1 109.50000 418.400000
4958 14789 7888 1 109.50000 418.400000
4958 14789 8655 1 109.50000 418.400000
6285 14789 7888 1 109.50000 418.400000
6285 14789 8655 1 109.50000 418.400000
7888 14789 8655 1 109.50000 418.400000
6653 14790 10054 1 109.50000 418.400000
6653 14790 10277 1 109.50000 418.400000
6653 14790 10278 1 109.50000 418.400000
10054 14790 10277 1 109.50000 418.400000
10054 14790 10278 1 109.50000 418.400000
10277 14790 10278 1 109.50000 418.400000
1102 14791 2535 1 109.50000 418.400000
1102 14791 10279 1 109.50000 418.400000
1102 14791 10280 1 109.50000 418.400000
2535 14791 10279 1 109.50000 418.400000
2535 14791 10280 1 109.50000 418.400000
10279 14791 10280 1 109.50000 418.400000
1049 14792 2909 1 109.50000 418.400000
1049 14792 8727 1 109.50000 418.400000
1049 14792 10281 1 109.50000 418.400000
2909 14792 8727 1 109.50000 418.400000
2909 14792 10281 1 109.50000 418.400000
8727 14792 10281 1 109.50000 418.400000
719 14793 3135 1 109.50000 418.400000
719 14793 7950 1 109.50000 418.400000
719 14793 9287 1 109.50000 418.400000
3135 14793 7950 1 109.50000 418.400000
3135 14793 9287 1 109.50000 418.400000
7950 14793 9287 1 109.50000 418.400000
5259 14794 9570 1 109.50000 418.400000
5259 14794 10282 1 109.50000 418.400000
5259 14794 10283 1 109.50000 418.400000
9570 14794 10282 1 109.50000 418.400000
9570 14794 10283 1 109.50000 418.400000
10282 14794 10283 1 109.50000 418.400000
1390 14795 5963 1 109.50000 418.400000
1390 14795 8359 1 109.50000 418.400000
1390 14795 10284 1 109.50000 418.400000
5963 14795 8359 1 109.50000 418.400000
5963 14795 10284 1 109.50000 418.400000
8359 14795 10284 1 109.50000 418.400000
866 14796 4593 1 109.50000 418.400000
866 14796 4595 1 109.50000 418.400000
866 14796 9636 1 109.50000 418.400000
4593 14796 4595 1 109.50000 418.400000
4593 14796 9636 1 109.50000 418.400000
4595 14796 9636 1 109.50000 418.400000
1949 14797 5038 1 109.50000 418.400000
1949 14797 9289 1 109.50000 418.400000
1949 14797 10286 1 109.50000 418.400000
5038 14797 9289 1 109.50000 418.400000
5038 14797 10286 1 109.50000 418.400000
9289 14797 10286 1 109.50000 418.400000
2030 14798 4334 1 109.50000 418.400000
2030 14798 7507 1 109.50000 418.400000
2030 14798 8763 1 109.50000 418.400000
4334 14798 7507 1 109.50000 418.400000
4334 14798 8763 1 109.50000 418.400000
7507 14798 8763 1 109.50000 418.400000
5420 14799 7443 1 109.50000 418.400000
5420 14799 10040 1 109.50000 418.400000
5420 14799 10287 1 109.50000 418.400000
7443 14799 10040 1 109.50000 418.400000
7443 14799 10287 1 109.50000 418.400000
10040 14799 10287 1 109.50000 418.400000
3768 14800 7604 1 109.50000 418.400000
3768 14800 8591 1 109.50000 418.400000
3768 14800 10288 1 109.50000 418.400000
7604 14800 8591 1 109.50000 418.400000
7604 14800 10288 1 109.50000 418.400000
8591 14800 10288 1 109.50000 418.400000
3209 14801 5863 1 109.50000 418.400000
3209 14801 5864 1 109.50000 418.400000
3209 14801 10289 1 109.50000 418.400000
5863 14801 5864 1 109.50000 418.400000
5863 14801 10289 1 109.50000 418.400000
5864 14801 10289 1 109.50000 418.400000
2209 14802 8349 1 109.50000 418.400000
2209 14802 9035 1 109.50000 418.400000
2209 14802 10291 1 109.50000 418.400000
8349 14802 9035 1 109.50000 418.400000
8349 14802 10291 1 109.50000 418.400000
9035 14802 10291 1 109.50000 418.400000
2143 14803 2532 1 109.50000 418.400000
2143 14803 5785 1 109.50000 418.400000
2143 14803 9220 1 109.50000 418.400000
2532 14803 5785 1 109.50000 418.400000
2532 14803 9220 1 109.50000 418.400000
5785 14803 9220 1 109.50000 418.400000
2154 14804 7960 1 109.50000 418.400000
2154 14804 8776 1 109.50000 418.400000
2154 14804 8872 1 109.50000 418.400000
7960 14804 8776 1 109.50000 418.400000
7960 14804 8872 1 109.50000 418.400000
8776 14804 8872 1 109.50000 418.400000
3700 14805 7585 1 109.50000 418.400000
3700 14805 8649 1 109.50000 418.400000
3700 14805 10292 1 109.50000 418.400000
7585 14805 8649 1 109.50000 418.400000
7585 14805 10292 1 109.50000 418.400000
8649 14805 10292 1 109.50000 418.400000
2341 14806 8037 1 109.50000 418.400000
2341 14806 10293 1 109.50000 418.400000
2341 14806 10294 1 109.50000 418.400000
8037 14806 10293 1 109.50000 418.400000
8037 14806 10294 1 109.50000 418.400000
10293 14806 10294 1 109.50000 418.400000
2347 14807 8615 1 109.50000 418.400000
2347 14807 9514 1 109.50000 418.400000
2347 14807 10295 1 109.50000 418.400000
8615 14807 9514 1 109.50000 418.400000
8615 14807 10295 1 109.50000 418.400000
9514 14807 10295 1 109.50000 418.400000
2199 14808 4753 1 109.50000 418.400000
2199 14808 8741 1 109.50000 418.400000
2199 14808 8863 1 109.50000 418.400000
4753 14808 8741 1 109.50000 418.400000
4753 14808 8863 1 109.50000 418.400000
8741 14808 8863 1 109.50000 418.400000
1354 14809 1356 1 109.50000 418.400000
1354 14809 2415 1 109.50000 418.400000
1354 14809 7725 1 109.50000 418.400000
1356 14809 2415 1 109.50000 418.400000
1356 14809 7725 1 109.50000 418.400000
2415 14809 7725 1 109.50000 418.400000
5914 14810 6218 1 109.50000 418.400000
5914 14810 7267 1 109.50000 418.400000
5914 14810 7633 1 109.50000 418.400000
6218 14810 7267 1 109.50000 418.400000
6218 14810 7633 1 109.50000 418.400000
7267 14810 7633 1 109.50000 418.400000
1132 14811 1226 1 109.50000 418.400000
1132 14811 6586 1 109.50000 418.400000
1132 14811 6587 1 109.50000 418.400000
1226 14811 6586 1 109.50000 418.400000
1226 14811 6587 1 109.50000 418.400000
6586 14811 6587 1 109.50000 418.400000
6094 14812 10137 1 109.50000 418.400000
6094 14812 10297 1 109.50000 418.400000
6094 14812 10298 1 109.50000 418.400000
10137 14812 10297 1 109.50000 418.400000
10137 14812 10298 1 109.50000 418.400000
10297 14812 10298 1 109.50000 418.400000
626 14813 4766 1 109.50000 418.400000
626 14813 7290 1 109.50000 418.400000
626 14813 9579 1 109.50000 418.400000
4766 14813 7290 1 109.50000 418.400000
4766 14813 9579 1 109.50000 418.400000
7290 14813 9579 1 109.50000 418.400000
5119 14814 7969 1 109.50000 418.400000
5119 14814 9336 1 109.50000 418.400000
5119 14814 10299 1 109.50000 418.400000
7969 14814 9336 1 109.50000 418.400000
7969 14814 10299 1 109.50000 418.400000
9336 14814 10299 1 109.50000 418.400000
4487 14815 6405 1 109.50000 418.400000
4487 14815 9910 1 109.50000 418.400000
4487 14815 10031 1 109.50000 418.400000
6405 14815 9910 1 109.50000 418.400000
6405 14815 10031 1 109.50000 418.400000
9910 14815 10031 1 109.50000 418.400000
6015 14816 6582 1 109.50000 418.400000
6015 14816 8088 1 109.50000 418.400000
6015 14816 8547 1 109.50000 418.400000
6582 14816 8088 1 109.50000 418.400000
6582 14816 8547 1 109.50000 418.400000
8088 14816 8547 1 109.50000 418.400000
162 14817 3212 1 109.50000 418.400000
162 14817 6920 1 109.50000 418.400000
162 14817 10176 1 109.50000 418.400000
3212 14817 6920 1 109.50000 418.400000
3212 14817 10176 1 109.50000 418.400000
6920 14817 10176 1 109.50000 418.400000
5913 14818 8604 1 109.50000 418.400000
5913 14818 10300 1 109.50000 418.400000
5913 14818 10301 1 109.50000 418.400000
8604 14818 10300 1 109.50000 418.400000
8604 14818 10301 1 109.50000 418.400000
10300 14818 10301 1 109.50000 418.400000
4659 14819 9086 1 109.50000 418.400000
4659 14819 9554 1 109.50000 418.400000
4659 14819 10303 1 109.50000 418.400000
9086 14819 9554 1 109.50000 418.400000
9086 14819 10303 1 109.50000 418.400000
9554 14819 10303 1 109.50000 418.400000
41 14820 4923 1 109.50000 418.400000
41 14820 8681 1 109.50000 418.400000
41 14820 10304 1 109.50000 418.400000
4923 14820 8681 1 109.50000 418.400000
4923 14820 10304 1 109.50000 418.400000
8681 14820 10304 1 109.50000 418.400000
643 14821 2392 1 109.50000 418.400000
643 14821 8117 1 109.50000 418.400000
643 14821 10305 1 109.50000 418.400000
2392 14821 8117 1 109.50000 418.400000
2392 14821 10305 1 109.50000 418.400000
8117 14821 10305 1 109.50000 418.400000
502 14822 3237 1 109.50000 418.400000
502 14822 8786 1 109.50000 418.400000
502 14822 8853 1 109.50000 418.400000
3237 14822 8786 1 109.50000 418.400000
3237 14822 8853 1 109.50000 418.400000
8786 14822 8853 1 109.50000 418.400000
4456 14823 7007 1 109.50000 418.400000
4456 14823 8049 1 109.50000 418.400000
4456 14823 10308 1 109.50000 418.400000
7007 14823 8049 1 109.50000 418.400000
7007 14823 10308 1 109.50000 418.400000
8049 14823 10308 1 109.50000 418.400000
8513 14824 10133 1 109.50000 418.400000
8513 14824 10309 1 109.50000 418.400000
8513 14824 10310 1 109.50000 418.400000
10133 14824 10309 1 109.50000 418.400000
10133 14824 10310 1 109.50000 418.400000
10309 14824 10310 1 109.50000 418.400000
4426 14825 9201 1 109.50000 418.400000
4426 14825 10311 1 109.50000 418.400000
4426 14825 10312 1 109.50000 418.400000
9201 14825 10311 1 109.50000 418.400000
9201 14825 10312 1 109.50000 418.400000
10311 14825 10312 1 109.50000 418.400000
5622 14826 6792 1 109.50000 418.400000
5622 14826 8409 1 109.50000 418.400000
5622 14826 10313 1 109.50000 418.400000
6792 14826 8409 1 109.50000 418.400000
6792 14826 10313 1 109.50000 418.400000
8409 14826 10313 1 109.50000 418.400000
22 14827 4954 1 109.50000 418.400000
22 14827 10315 1 109.50000 418.400000
22 14827 10316 1 109.50000 418.400000
4954 14827 10315 1 109.50000 418.400000
4954 14827 10316 1 109.50000 418.400000
10315 14827 10316 1 109.50000 418.400000
234 14828 4203 1 109.50000 418.400000
234 14828 9802 1 109.50000 418.400000
234 14828 10317 1 109.50000 418.400000
4203 14828 9802 1 109.50000 418.400000
4203 14828 10317 1 109.50000 418.400000
9802 14828 10317 1 109.50000 418.400000
1430 14829 3138 1 109.50000 418.400000
1430 14829 4186 1 109.50000 418.400000
1430 14829 9830 1 109.50000 418.400000
3138 14829 4186 1 109.50000 418.400000
3138 14829 9830 1 109.50000 418.400000
4186 14829 9830 1 109.50000 418.400000
1515 14830 10318 1 109.50000 418.400000
1515 14830 10319 1 109.50000 418.400000
1515 14830 10320 1 109.50000 418.400000
10318 14830 10319 1 109.50000 418.400000
10318 14830 10320 1 109.50000 418.400000
10319 14830 10320 1 109.50000 418.400000
4536 14831 9757 1 109.50000 418.400000
4536 14831 10321 1 109.50000 418.400000
4536 14831 10322 1 109.50000 418.400000
9757 14831 10321 1 109.50000 418.400000
9757 14831 10322 1 109.50000 418.400000
10321 14831 10322 1 109.50000 418.400000
1947 14832 9476 1 109.50000 418.400000
1947 14832 10281 1 109.50000 418.400000
1947 14832 10323 1 109.50000 418.400000
9476 14832 10281 1 109.50000 418.400000
9476 14832 10323 1 109.50000 418.400000
10281 14832 10323 1 109.50000 418.400000
2275 14833 2311 1 109.50000 418.400000
2275 14833 5254 1 109.50000 418.400000
2275 14833 7564 1 109.50000 418.400000
2311 14833 5254 1 109.50000 418.400000
2311 14833 7564 1 109.50000 418.400000
5254 14833 7564 1 109.50000 418.400000
3609 14834 6371 1 109.50000 418.400000
3609 14834 8400 1 109.50000 418.400000
3609 14834 9457 1 109.50000 418.400000
6371 14834 8400 1 109.50000 418.400000
6371 14834 9457 1 109.50000 418.400000
8400 14834 9457 1 109.50000 418.400000
7119 14835 8654 1 109.50000 418.400000
7119 14835 9841 1 109.50000 418.400000
7119 14835 10324 1 109.50000 418.400000
8654 14835 9841 1 109.50000 418.400000
8654 14835 10324 1 109.50000 418.400000
9841 14835 10324 1 109.50000 418.400000
4305 14836 10253 1 109.50000 418.400000
4305 14836 10325 1 109.50000 418.400000
4305 14836 10326 1 109.50000 418.400000
10253 14836 10325 1 109.50000 418.400000
10253 14836 10326 1 109.50000 418.400000
10325 14836 10326 1 109.50000 418.400000
6579 14837 7677 1 109.50000 418.400000
6579 14837 10283 1 109.50000 418.400000
6579 14837 10327 1 109.50000 418.400000
7677 14837 10283 1 109.50000 418.400000
7677 14837 10327 1 109.50000 418.400000
10283 14837 10327 1 109.50000 418.400000
2077 14838 2474 1 109.50000 418.400000
2077 14838 3000 1 109.50000 418.400000
2077 14838 10328 1 109.50000 418.400000
2474 14838 3000 1 109.50000 418.400000
2474 14838 10328 1 109.50000 418.400000
3000 14838 10328 1 109.50000 418.400000
5651 14839 8719 1 109.50000 418.400000
5651 14839 10331 1 109.50000 418.400000
5651 14839 10332 1 109.50000 418.400000
8719 14839 10331 1 109.50000 418.400000
8719 14839 10332 1 109.50000 418.400000
10331 14839 10332 1 109.50000 418.400000
1432 14840 7354 1 109.50000 418.400000
1432 14840 9105 1 109.50000 418.400000
1432 14840 10135 1 109.50000 418.400000
7354 14840 9105 1 109.50000 418.400000
7354 14840 10135 1 109.50000 418.400000
9105 14840 10135 1 109.50000 418.400000
2992 14841 7883 1 109.50000 418.400000
2992 14841 8552 1 109.50000 418.400000
2992 14841 10333 1 109.50000 418.400000
7883 14841 8552 1 109.50000 418.400000
7883 14841 10333 1 109.50000 418.400000
8552 14841 10333 1 109.50000 418.400000
36 14842 639 1 109.50000 418.400000
36 14842 10334 1 109.50000 418.400000
36 14842 10335 1 109.50000 418.400000
639 14842 10334 1 109.50000 418.400000
639 14842 10335 1 109.50000 418.400000
10334 14842 10335 1 109.50000 418.400000
8351 14843 8629 1 109.50000 418.400000
8351 14843 8880 1 109.50000 418.400000
8351 14843 9821 1 109.50000 418.400000
8629 14843 8880 1 109.50000 418.400000
8629 14843 9821 1 109.50000 418.400000
8880 14843 9821 1 109.50000 418.400000
1303 14844 2528 1 109.50000 418.400000
1303 14844 5947 1 109.50000 418.400000
1303 14844 10336 1 109.50000 418.400000
2528 14844 5947 1 109.50000 418.400000
2528 14844 10336 1 109.50000 418.400000
5947 14844 10336 1 109.50000 418.400000
1041 14845 5946 1 109.50000 418.400000
1041 14845 10337 1 109.50000 418.400000
1041 14845 10338 1 109.50000 418.400000
5946 14845 10337 1 109.50000 418.400000
5946 14845 10338 1 109.50000 418.400000
10337 14845 10338 1 109.50000 418.400000
5405 14846 7475 1 109.50000 418.400000
5405 14846 9262 1 109.50000 418.400000
5405 14846 9943 1 109.50000 418.400000
7475 14846 9262 1 109.50000 418.400000
7475 14846 9943 1 109.50000 418.400000
9262 14846 9943 1 109.50000 418.400000
4698 14847 8448 1 109.50000 418.400000
4698 14847 9145 1 109.50000 418.400000
4698 14847 10340 1 109.50000 418.400000
8448 14847 9145 1 109.50000 418.400000
8448 14847 10340 1 109.50000 418.400000
9145 14847 10340 1 109.50000 418.400000
4706 14848 5773 1 109.50000 418.400000
4706 14848 6814 1 109.50000 418.400000
4706 14848 10341 1 109.50000 418.400000
5773 14848 6814 1 109.50000 418.400000
5773 14848 10341 1 109.50000 418.400000
6814 14848 10341 1 109.50000 418.400000
8458 14849 10162 1 109.50000 418.400000
8458 14849 10342 1 109.50000 418.400000
8458 14849 10343 1 109.50000 418.400000
10162 14849 10342 1 109.50000 418.400000
10162 14849 10343 1 109.50000 418.400000
10342 14849 10343 1 109.50000 418.400000
4975 14850 7039 1 109.50000 418.400000
4975 14850 10344 1 109.50000 418.400000
4975 14850 10345 1 109.50000 418.400000
7039 14850 10344 1 109.50000 418.400000
7039 14850 10345 1 109.50000 418.400000
10344 14850 10345 1 109.50000 418.400000
5831 14851 7623 1 109.50000 418.400000
5831 14851 9934 1 109.50000 418.400000
5831 14851 10346 1 109.50000 418.400000
7623 14851 9934 1 109.50000 418.400000
7623 14851 10346 1 109.50000 418.400000
9934 14851 10346 1 109.50000 418.400000
3057 14852 8005 1 109.50000 418.400000
3057 14852 10265 1 109.50000 418.400000
3057 14852 10347 1 109.50000 418.400000
8005 14852 10265 1 109.50000 418.400000
8005 14852 10347 1 109.50000 418.400000
10265 14852 10347 1 109.50000 418.400000
6359 14853 8433 1 109.50000 418.400000
6359 14853 8468 1 109.50000 418.400000
6359 14853 10348 1 109.50000 418.400000
8433 14853 8468 1 109.50000 418.400000
8433 14853 10348 1 109.50000 418.400000
8468 14853 10348 1 109.50000 418.400000
7952 14854 8924 1 109.50000 418.400000
7952 14854 9940 1 109.50000 418.400000
7952 14854 10349 1 109.50000 418.400000
8924 14854 9940 1 109.50000 418.400000
8924 14854 10349 1 109.50000 418.400000
9940 14854 10349 1 109.50000 418.400000
1333 14855 5137 1 109.50000 418.400000
1333 14855 9972 1 109.50000 418.400000
1333 14855 10350 1 109.50000 418.400000
5137 14855 9972 1 109.50000 418.400000
5137 14855 10350 1 109.50000 418.400000
9972 14855 10350 1 109.50000 418.400000
144 14856 2630 1 109.50000 418.400000
144 14856 7466 1 109.50000 418.400000
144 14856 9338 1 109.50000 418.400000
2630 14856 7466 1 109.50000 418.400000
2630 14856 9338 1 109.50000 418.400000
7466 14856 9338 1 109.50000 418.400000
9968 14857 10351 1 109.50000 418.400000
9968 14857 10352 1 109.50000 418.400000
9968 14857 10353 1 109.50000 418.400000
10351 14857 10352 1 109.50000 418.400000
10351 14857 10353 1 109.50000 418.400000
10352 14857 10353 1 109.50000 418.400000
1181 14858 7115 1 109.50000 418.400000
1181 14858 9041 1 109.50000 418.400000
1181 14858 10354 1 109.50000 418.400000
7115 14858 9041 1 109.50000 418.400000
7115 14858 10354 1 109.50000 418.400000
9041 14858 10354 1 109.50000 418.400000
138 14859 5334 1 109.50000 418.400000
138 14859 9509 1 109.50000 418.400000
138 14859 10355 1 109.50000 418.400000
5334 14859 9509 1 109.50000 418.400000
5334 14859 10355 1 109.50000 418.400000
9509 14859 10355 1 109.50000 418.400000
5861 14860 6634 1 109.50000 418.400000
5861 14860 7582 1 109.50000 418.400000
5861 14860 8474 1 109.50000 418.400000
6634 14860 7582 1 109.50000 418.400000
6634 14860 8474 1 109.50000 418.400000
7582 14860 8474 1 109.50000 418.400000
1559 14861 2578 1 109.50000 418.400000
1559 14861 7780 1 109.50000 418.400000
1559 14861 7970 1 109.50000 418.400000
2578 14861 7780 1 109.50000 418.400000
2578 14861 7970 1 109.50000 418.400000
7780 14861 7970 1 109.50000 418.400000
3352 14862 9520 1 109.50000 418.400000
3352 14862 10358 1 109.50000 418.400000
3352 14862 10359 1 109.50000 418.400000
9520 14862 10358 1 109.50000 418.400000
9520 14862 10359 1 109.50000 418.400000
10358 14862 10359 1 109.50000 418.400000
4602 14863 6244 1 109.50000 418.400000
4602 14863 7313 1 109.50000 418.400000
4602 14863 8079 1 109.50000 418.400000
6244 14863 7313 1 109.50000 418.400000
6244 14863 8079 1 109.50000 418.400000
7313 14863 8079 1 109.50000 418.400000
7609 14864 10360 1 109.50000 418.400000
7609 14864 10361 1 109.50000 418.400000
7609 14864 10362 1 109.50000 418.400000
10360 14864 10361 1 109.50000 418.400000
10360 14864 10362 1 109.50000 418.400000
10361 14864 10362 1 109.50000 418.400000
8679 14865 10363 1 109.50000 418.400000
8679 14865 10364 1 109.50000 418.400000
8679 14865 10365 1 109.50000 418.400000
10363 14865 10364 1 109.50000 418.400000
10363 14865 10365 1 109.50000 418.400000
10364 14865 10365 1 109.50000 418.400000
3908 14866 6377 1 109.50000 418.400000
3908 14866 10366 1 109.50000 418.400000
3908 14866 10367 1 109.50000 418.400000
6377 14866 10366 1 109.50000 418.400000
6377 14866 10367 1 109.50000 418.400000
10366 14866 10367 1 109.50000 418.400000
7603 14867 7605 1 109.50000 418.400000
7603 14867 10368 1 109.50000 418.400000
7603 14867 10369 1 109.50000 418.400000
7605 14867 10368 1 109.50000 418.400000
7605 14867 10369 1 109.50000 418.400000
10368 14867 10369 1 109.50000 418.400000
7893 14868 10097 1 109.50000 418.400000
7893 14868 10370 1 109.50000 418.400000
7893 14868 10371 1 109.50000 418.400000
10097 14868 10370 1 109.50000 418.400000
10097 14868 10371 1 109.50000 418.400000
10370 14868 10371 1 109.50000 418.400000
10372 14869 10373 1 109.50000 418.400000
10372 14869 10374 1 109.50000 418.400000
10372 14869 10375 1 109.50000 418.400000
10373 14869 10374 1 109.50000 418.400000
10373 14869 10375 1 109.50000 418.400000
10374 14869 10375 1 109.50000 418.400000
1124 14870 7766 1 109.50000 418.400000
1124 14870 8087 1 109.50000 418.400000
1124 14870 8995 1 109.50000 418.400000
7766 14870 8087 1 109.50000 418.400000
7766 14870 8995 1 109.50000 418.400000
8087 14870 8995 1 109.50000 418.400000
136 14871 7438 1 109.50000 418.400000
136 14871 8261 1 109.50000 418.400000
136 14871 8567 1 109.50000 418.400000
7438 14871 8261 1 109.50000 418.400000
7438 14871 8567 1 109.50000 418.400000
8261 14871 8567 1 109.50000 418.400000
2044 14872 8224 1 109.50000 418.400000
2044 14872 9240 1 109.50000 418.400000
2044 14872 10376 1 109.50000 418.400000
8224 14872 9240 1 109.50000 418.400000
8224 14872 10376 1 109.50000 418.400000
9240 14872 10376 1 109.50000 418.400000
7314 14873 8388 1 109.50000 418.400000
7314 14873 8519 1 109.50000 418.400000
7314 14873 10377 1 109.50000 418.400000
8388 14873 8519 1 109.50000 418.400000
8388 14873 10377 1 109.50000 418.400000
8519 14873 10377 1 109.50000 418.400000
10378 14874 10379 1 109.50000 418.400000
10378 14874 10380 1 109.50000 418.400000
10378 14874 10661 1 109.50000 418.400000
10379 14874 10380 1 109.50000 418.400000
10379 14874 10661 1 109.50000 418.400000
10380 14874 10661 1 109.50000 418.400000
5703 14875 10164 1 109.50000 418.400000
5703 14875 10381 1 109.50000 418.400000
5703 14875 10382 1 109.50000 418.400000
10164 14875 10381 1 109.50000 418.400000
10164 14875 10382 1 109.50000 418.400000
10381 14875 10382 1 109.50000 418.400000
3584 14876 4869 1 109.50000 418.400000
3584 14876 9427 1 109.50000 418.400000
3584 14876 10383 1 109.50000 418.400000
4869 14876 9427 1 109.50000 418.400000
4869 14876 10383 1 109.50000 418.400000
9427 14876 10383 1 109.50000 418.400000
2223 14877 8464 1 109.50000 418.400000
2223 14877 10201 1 109.50000 418.400000
2223 14877 10384 1 109.50000 418.400000
8464 14877 10201 1 109.50000 418.400000
8464 14877 10384 1 109.50000 418.400000
10201 14877 10384 1 109.50000 418.400000
7248 14878 7635 1 109.50000 418.400000
7248 14878 10385 1 109.50000 418.400000
7248 14878 10386 1 109.50000 418.400000
7635 14878 10385 1 109.50000 418.400000
7635 14878 10386 1 109.50000 418.400000
10385 14878 10386 1 109.50000 418.400000
1080 14879 9016 1 109.50000 418.400000
1080 14879 10387 1 109.50000 418.400000
1080 14879 10388 1 109.50000 418.400000
9016 14879 10387 1 109.50000 418.400000
9016 14879 10388 1 109.50000 418.400000
10387 14879 10388 1 109.50000 418.400000
4369 14880 7793 1 109.50000 418.400000
4369 14880 9682 1 109.50000 418.400000
4369 14880 10293 1 109.50000 418.400000
7793 14880 9682 1 109.50000 418.400000
7793 14880 10293 1 109.50000 418.400000
9682 14880 10293 1 109.50000 418.400000
2399 14881 2626 1 109.50000 418.400000
2399 14881 8317 1 109.50000 418.400000
2399 14881 8986 1 109.50000 418.400000
2626 14881 8317 1 109.50000 418.400000
2626 14881 8986 1 109.50000 418.400000
8317 14881 8986 1 109.50000 418.400000
2316 14882 6082 1 109.50000 418.400000
2316 14882 8714 1 109.50000 418.400000
2316 14882 9767 1 109.50000 418.400000
6082 14882 8714 1 109.50000 418.400000
6082 14882 9767 1 109.50000 418.400000
8714 14882 9767 1 109.50000 418.400000
70 14883 3594 1 109.50000 418.400000
70 14883 5412 1 109.50000 418.400000
70 14883 7484 1 109.50000 418.400000
3594 14883 5412 1 109.50000 418.400000
3594 14883 7484 1 109.50000 418.400000
5412 14883 7484 1 109.50000 418.400000
821 14884 4341 1 109.50000 418.400000
821 14884 4424 1 109.50000 418.400000
821 14884 9316 1 109.50000 418.400000
4341 14884 4424 1 109.50000 418.400000
4341 14884 9316 1 109.50000 418.400000
4424 14884 9316 1 109.50000 418.400000
7791 14885 8435 1 109.50000 418.400000
7791 14885 10389 1 109.50000 418.400000
7791 14885 10390 1 109.50000 418.400000
8435 14885 10389 1 109.50000 418.400000
8435 14885 10390 1 109.50000 418.400000
10389 14885 10390 1 109.50000 418.400000
3409 14886 4575 1 109.50000 418.400000
3409 14886 4601 1 109.50000 418.400000
3409 14886 7710 1 109.50000 418.400000
4575 14886 4601 1 109.50000 418.400000
4575 14886 7710 1 109.50000 418.400000
4601 14886 7710 1 109.50000 418.400000
7478 14887 9175 1 109.50000 418.400000
7478 14887 9722 1 109.50000 418.400000
7478 14887 10181 1 109.50000 418.400000
9175 14887 9722 1 109.50000 418.400000
9175 14887 10181 1 109.50000 418.400000
9722 14887 10181 1 109.50000 418.400000
4274 14888 5874 1 109.50000 418.400000
4274 14888 9073 1 109.50000 418.400000
4274 14888 10090 1 109.50000 418.400000
5874 14888 9073 1 109.50000 418.400000
5874 14888 10090 1 109.50000 418.400000
9073 14888 10090 1 109.50000 418.400000
3631 14889 6965 1 109.50000 418.400000
3631 14889 6967 1 109.50000 418.400000
3631 14889 10391 1 109.50000 418.400000
6965 14889 6967 1 109.50000 418.400000
6965 14889 10391 1 109.50000 418.400000
6967 14889 10391 1 109.50000 418.400000
9292 14890 10392 1 109.50000 418.400000
9292 14890 10393 1 109.50000 418.400000
9292 14890 10394 1 109.50000 418.400000
10392 14890 10393 1 109.50000 418.400000
10392 14890 10394 1 109.50000 418.400000
10393 14890 10394 1 109.50000 418.400000
2849 14891 4523 1 109.50000 418.400000
2849 14891 9572 1 109.50000 418.400000
2849 14891 10254 1 109.50000 418.400000
4523 14891 9572 1 109.50000 418.400000
4523 14891 10254 1 109.50000 418.400000
9572 14891 10254 1 109.50000 418.400000
504 14892 4868 1 109.50000 418.400000
504 14892 10203 1 109.50000 418.400000
504 14892 10395 1 109.50000 418.400000
4868 14892 10203 1 109.50000 418.400000
4868 14892 10395 1 109.50000 418.400000
10203 14892 10395 1 109.50000 418.400000
5148 14893 9489 1 109.50000 418.400000
5148 14893 9896 1 109.50000 418.400000
5148 14893 10335 1 109.50000 418.400000
9489 14893 9896 1 109.50000 418.400000
9489 14893 10335 1 109.50000 418.400000
9896 14893 10335 1 109.50000 418.400000
3925 14894 7656 1 109.50000 418.400000
3925 14894 9640 1 109.50000 418.400000
3925 14894 9975 1 109.50000 418.400000
7656 14894 9640 1 109.50000 418.400000
7656 14894 9975 1 109.50000 418.400000
9640 14894 9975 1 109.50000 418.400000
2439 14895 8155 1 109.50000 418.400000
2439 14895 10027 1 109.50000 418.400000
2439 14895 10396 1 109.50000 418.400000
8155 14895 10027 1 109.50000 418.400000
8155 14895 10396 1 109.50000 418.400000
10027 14895 10396 1 109.50000 418.400000
1412 14896 2958 1 109.50000 418.400000
1412 14896 3650 1 109.50000 418.400000
1412 14896 10398 1 109.50000 418.400000
2958 14896 3650 1 109.50000 418.400000
2958 14896 10398 1 109.50000 418.400000
3650 14896 10398 1 109.50000 418.400000
1460 14897 6112 1 109.50000 418.400000
1460 14897 9170 1 109.50000 418.400000
1460 14897 10263 1 109.50000 418.400000
6112 14897 9170 1 109.50000 418.400000
6112 14897 10263 1 109.50000 418.400000
9170 14897 10263 1 109.50000 418.400000
8722 14898 9188 1 109.50000 418.400000
8722 14898 9225 1 109.50000 418.400000
8722 14898 10399 1 109.50000 418.400000
9188 14898 9225 1 109.50000 418.400000
9188 14898 10399 1 109.50000 418.400000
9225 14898 10399 1 109.50000 418.400000
1394 14899 2116 1 109.50000 418.400000
1394 14899 7107 1 109.50000 418.400000
1394 14899 10400 1 109.50000 418.400000
2116 14899 7107 1 109.50000 418.400000
2116 14899 10400 1 109.50000 418.400000
7107 14899 10400 1 109.50000 418.400000
1354 14900 2861 1 109.50000 418.400000
1354 14900 7269 1 109.50000 418.400000
1354 14900 7270 1 109.50000 418.400000
2861 14900 7269 1 109.50000 418.400000
2861 14900 7270 1 109.50000 418.400000
7269 14900 7270 1 109.50000 418.400000
5632 14901 7303 1 109.50000 418.400000
5632 14901 10214 1 109.50000 418.400000
5632 14901 10402 1 109.50000 418.400000
7303 14901 10214 1 109.50000 418.400000
7303 14901 10402 1 109.50000 418.400000
10214 14901 10402 1 109.50000 418.400000
4039 14902 9049 1 109.50000 418.400000
4039 14902 10403 1 109.50000 418.400000
4039 14902 10404 1 109.50000 418.400000
9049 14902 10403 1 109.50000 418.400000
9049 14902 10404 1 109.50000 418.400000
10403 14902 10404 1 109.50000 418.400000
1859 14903 4161 1 109.50000 418.400000
1859 14903 10405 1 109.50000 418.400000
1859 14903 10406 1 109.50000 418.400000
4161 14903 10405 1 109.50000 418.400000
4161 14903 10406 1 109.50000 418.400000
10405 14903 10406 1 109.50000 418.400000
1640 14904 8497 1 109.50000 418.400000
1640 14904 8499 1 109.50000 418.400000
1640 14904 8500 1 109.50000 418.400000
8497 14904 8499 1 109.50000 418.400000
8497 14904 8500 1 109.50000 418.400000
8499 14904 8500 1 109.50000 418.400000
4086 14905 5118 1 109.50000 418.400000
4086 14905 10015 1 109.50000 418.400000
4086 14905 10408 1 109.50000 418.400000
5118 14905 10015 1 109.50000 418.400000
5118 14905 10408 1 109.50000 418.400000
10015 14905 10408 1 109.50000 418.400000
2135 14906 4552 1 109.50000 418.400000
2135 14906 8844 1 109.50000 418.400000
2135 14906 10409 1 109.50000 418.400000
4552 14906 8844 1 109.50000 418.400000
4552 14906 10409 1 109.50000 418.400000
8844 14906 10409 1 109.50000 418.400000
2761 14907 6029 1 109.50000 418.400000
2761 14907 10250 1 109.50000 418.400000
2761 14907 10410 1 109.50000 418.400000
6029 14907 10250 1 109.50000 418.400000
6029 14907 10410 1 109.50000 418.400000
10250 14907 10410 1 109.50000 418.400000
4077 14908 6463 1 109.50000 418.400000
4077 14908 8808 1 109.50000 418.400000
4077 14908 10411 1 109.50000 418.400000
6463 14908 8808 1 109.50000 418.400000
6463 14908 10411 1 109.50000 418.400000
8808 14908 10411 1 109.50000 418.400000
201 14909 7062 1 109.50000 418.400000
201 14909 8825 1 109.50000 418.400000
201 14909 10412 1 109.50000 418.400000
7062 14909 8825 1 109.50000 418.400000
7062 14909 10412 1 109.50000 418.400000
8825 14909 10412 1 109.50000 418.400000
4631 14910 10153 1 109.50000 418.400000
4631 14910 10410 1 109.50000 418.400000
4631 14910 10415 1 109.50000 418.400000
10153 14910 10410 1 109.50000 418.400000
10153 14910 10415 1 109.50000 418.400000
10410 14910 10415 1 109.50000 418.400000
1248 14911 5915 1 109.50000 418.400000
1248 14911 7822 1 109.50000 418.400000
1248 14911 10232 1 109.50000 418.400000
5915 14911 7822 1 109.50000 418.400000
5915 14911 10232 1 109.50000 418.400000
7822 14911 10232 1 109.50000 418.400000
443 14912 2048 1 109.50000 418.400000
443 14912 10416 1 109.50000 418.400000
443 14912 10417 1 109.50000 418.400000
2048 14912 10416 1 109.50000 418.400000
2048 14912 10417 1 109.50000 418.400000
10416 14912 10417 1 109.50000 418.400000
803 14913 5870 1 109.50000 418.400000
803 14913 10271 1 109.50000 418.400000
803 14913 10418 1 109.50000 418.400000
5870 14913 10271 1 109.50000 418.400000
5870 14913 10418 1 109.50000 418.400000
10271 14913 10418 1 109.50000 418.400000
2472 14914 2867 1 109.50000 418.400000
2472 14914 4782 1 109.50000 418.400000
2472 14914 8659 1 109.50000 418.400000
2867 14914 4782 1 109.50000 418.400000
2867 14914 8659 1 109.50000 418.400000
4782 14914 8659 1 109.50000 418.400000
3620 14915 10408 1 109.50000 418.400000
3620 14915 10419 1 109.50000 418.400000
3620 14915 10420 1 109.50000 418.400000
10408 14915 10419 1 109.50000 418.400000
10408 14915 10420 1 109.50000 418.400000
10419 14915 10420 1 109.50000 418.400000
5272 14916 7043 1 109.50000 418.400000
5272 14916 9132 1 109.50000 418.400000
5272 14916 10421 1 109.50000 418.400000
7043 14916 9132 1 109.50000 418.400000
7043 14916 10421 1 109.50000 418.400000
9132 14916 10421 1 109.50000 418.400000
617 14917 5697 1 109.50000 418.400000
617 14917 8682 1 109.50000 418.400000
617 14917 9777 1 109.50000 418.400000
5697 14917 8682 1 109.50000 418.400000
5697 14917 9777 1 109.50000 418.400000
8682 14917 9777 1 109.50000 418.400000
4097 14918 5016 1 109.50000 418.400000
4097 14918 7667 1 109.50000 418.400000
4097 14918 10358 1 109.50000 418.400000
5016 14918 7667 1 109.50000 418.400000
5016 14918 10358 1 109.50000 418.400000
7667 14918 10358 1 109.50000 418.400000
1036 14919 1037 1 109.50000 418.400000
1036 14919 1038 1 109.50000 418.400000
1036 14919 1039 1 109.50000 418.400000
1037 14919 1038 1 109.50000 418.400000
1037 14919 1039 1 109.50000 418.400000
1038 14919 1039 1 109.50000 418.400000
5378 14920 8507 1 109.50000 418.400000
5378 14920 10311 1 109.50000 418.400000
5378 14920 10423 1 109.50000 418.400000
8507 14920 10311 1 109.50000 418.400000
8507 14920 10423 1 109.50000 418.400000
10311 14920 10423 1 109.50000 418.400000
3046 14921 5696 1 109.50000 418.400000
3046 14921 9380 1 109.50000 418.400000
3046 14921 10167 1 109.50000 418.400000
5696 14921 9380 1 109.50000 418.400000
5696 14921 10167 1 109.50000 418.400000
9380 14921 10167 1 109.50000 418.400000
885 14922 7581 1 109.50000 418.400000
885 14922 10424 1 109.50000 418.400000
885 14922 10822 1 109.50000 418.400000
7581 14922 10424 1 109.50000 418.400000
7581 14922 10822 1 109.50000 418.400000
10424 14922 10822 1 109.50000 418.400000
5189 14923 7036 1 109.50000 418.400000
5189 14923 9053 1 109.50000 418.400000
5189 14923 10425 1 109.50000 418.400000
7036 14923 9053 1 109.50000 418.400000
7036 14923 10425 1 109.50000 418.400000
9053 14923 10425 1 109.50000 418.400000
6554 14924 7156 1 109.50000 418.400000
6554 14924 9433 1 109.50000 418.400000
6554 14924 10426 1 109.50000 418.400000
7156 14924 9433 1 109.50000 418.400000
7156 14924 10426 1 109.50000 418.400000
9433 14924 10426 1 109.50000 418.400000
3404 14925 8950 1 109.50000 418.400000
3404 14925 10125 1 109.50000 418.400000
3404 14925 10278 1 109.50000 418.400000
8950 14925 10125 1 109.50000 418.400000
8950 14925 10278 1 109.50000 418.400000
10125 14925 10278 1 109.50000 418.400000
5474 14926 9180 1 109.50000 418.400000
5474 14926 10291 1 109.50000 418.400000
5474 14926 10427 1 109.50000 418.400000
9180 14926 10291 1 109.50000 418.400000
9180 14926 10427 1 109.50000 418.400000
10291 14926 10427 1 109.50000 418.400000
5180 14927 9022 1 109.50000 418.400000
5180 14927 10428 1 109.50000 418.400000
5180 14927 10429 1 109.50000 418.400000
9022 14927 10428 1 109.50000 418.400000
9022 14927 10429 1 109.50000 418.400000
10428 14927 10429 1 109.50000 418.400000
9417 14928 10345 1 109.50000 418.400000
9417 14928 10430 1 109.50000 418.400000
9417 14928 10431 1 109.50000 418.400000
10345 14928 10430 1 109.50000 418.400000
10345 14928 10431 1 109.50000 418.400000
10430 14928 10431 1 109.50000 418.400000
4628 14929 7681 1 109.50000 418.400000
4628 14929 8570 1 109.50000 418.400000
4628 14929 10432 1 109.50000 418.400000
7681 14929 8570 1 109.50000 418.400000
7681 14929 10432 1 109.50000 418.400000
8570 14929 10432 1 109.50000 418.400000
5993 14930 6983 1 109.50000 418.400000
5993 14930 9720 1 109.50000 418.400000
5993 14930 9906 1 109.50000 418.400000
6983 14930 9720 1 109.50000 418.400000
6983 14930 9906 1 109.50000 418.400000
9720 14930 9906 1 109.50000 418.400000
1480 14931 2583 1 109.50000 418.400000
1480 14931 2585 1 109.50000 418.400000
1480 14931 8778 1 109.50000 418.400000
2583 14931 2585 1 109.50000 418.400000
2583 14931 8778 1 109.50000 418.400000
2585 14931 8778 1 109.50000 418.400000
6610 14932 8462 1 109.50000 418.400000
6610 14932 8587 1 109.50000 418.400000
6610 14932 9455 1 109.50000 418.400000
8462 14932 8587 1 109.50000 418.400000
8462 14932 9455 1 109.50000 418.400000
8587 14932 9455 1 109.50000 418.400000
45 14933 2200 1 109.50000 418.400000
45 14933 9713 1 109.50000 418.400000
45 14933 10433 1 109.50000 418.400000
2200 14933 9713 1 109.50000 418.400000
2200 14933 10433 1 109.50000 418.400000
9713 14933 10433 1 109.50000 418.400000
4815 14934 5747 1 109.50000 418.400000
4815 14934 6027 1 109.50000 418.400000
4815 14934 8172 1 109.50000 418.400000
5747 14934 6027 1 109.50000 418.400000
5747 14934 8172 1 109.50000 418.400000
6027 14934 8172 1 109.50000 418.400000
1668 14935 7704 1 109.50000 418.400000
1668 14935 7820 1 109.50000 418.400000
1668 14935 10434 1 109.50000 418.400000
7704 14935 7820 1 109.50000 418.400000
7704 14935 10434 1 109.50000 418.400000
7820 14935 10434 1 109.50000 418.400000
1045 14936 4252 1 109.50000 418.400000
1045 14936 8754 1 109.50000 418.400000
1045 14936 10421 1 109.50000 418.400000
4252 14936 8754 1 109.50000 418.400000
4252 14936 10421 1 109.50000 418.400000
8754 14936 10421 1 109.50000 418.400000
2459 14937 5327 1 109.50000 418.400000
2459 14937 7046 1 109.50000 418.400000
2459 14937 9209 1 109.50000 418.400000
5327 14937 7046 1 109.50000 418.400000
5327 14937 9209 1 109.50000 418.400000
7046 14937 9209 1 109.50000 418.400000
3945 14938 5003 1 109.50000 418.400000
3945 14938 6765 1 109.50000 418.400000
3945 14938 6767 1 109.50000 418.400000
5003 14938 6765 1 109.50000 418.400000
5003 14938 6767 1 109.50000 418.400000
6765 14938 6767 1 109.50000 418.400000
10437 14939 10438 1 109.50000 418.400000
10437 14939 10439 1 109.50000 418.400000
10437 14939 10440 1 109.50000 418.400000
10438 14939 10439 1 109.50000 418.400000
10438 14939 10440 1 109.50000 418.400000
10439 14939 10440 1 109.50000 418.400000
4447 14940 7550 1 109.50000 418.400000
4447 14940 9222 1 109.50000 418.400000
4447 14940 10443 1 109.50000 418.400000
7550 14940 9222 1 109.50000 418.400000
7550 14940 10443 1 109.50000 418.400000
9222 14940 10443 1 109.50000 418.400000
7385 14941 7751 1 109.50000 418.400000
7385 14941 10444 1 109.50000 418.400000
7385 14941 10445 1 109.50000 418.400000
7751 14941 10444 1 109.50000 418.400000
7751 14941 10445 1 109.50000 418.400000
10444 14941 10445 1 109.50000 418.400000
873 14942 5011 1 109.50000 418.400000
873 14942 9404 1 109.50000 418.400000
873 14942 10446 1 109.50000 418.400000
5011 14942 9404 1 109.50000 418.400000
5011 14942 10446 1 109.50000 418.400000
9404 14942 10446 1 109.50000 418.400000
4388 14943 8085 1 109.50000 418.400000
4388 14943 8920 1 109.50000 418.400000
4388 14943 10447 1 109.50000 418.400000
8085 14943 8920 1 109.50000 418.400000
8085 14943 10447 1 109.50000 418.400000
8920 14943 10447 1 109.50000 418.400000
774 14944 3430 1 109.50000 418.400000
774 14944 5184 1 109.50000 418.400000
774 14944 10448 1 109.50000 418.400000
3430 14944 5184 1 109.50000 418.400000
3430 14944 10448 1 109.50000 418.400000
5184 14944 10448 1 109.50000 418.400000
751 14945 9597 1 109.50000 418.400000
751 14945 10449 1 109.50000 418.400000
751 14945 10450 1 109.50000 418.400000
9597 14945 10449 1 109.50000 418.400000
9597 14945 10450 1 109.50000 418.400000
10449 14945 10450 1 109.50000 418.400000
7540 14946 10451 1 109.50000 418.400000
7540 14946 10452 1 109.50000 418.400000
7540 14946 10453 1 109.50000 418.400000
10451 14946 10452 1 109.50000 418.400000
10451 14946 10453 1 109.50000 418.400000
10452 14946 10453 1 109.50000 418.400000
979 14947 2367 1 109.50000 418.400000
979 14947 6342 1 109.50000 418.400000
979 14947 7756 1 109.50000 418.400000
2367 14947 6342 1 109.50000 418.400000
2367 14947 7756 1 109.50000 418.400000
6342 14947 7756 1 109.50000 418.400000
2414 14948 9204 1 109.50000 418.400000
2414 14948 10454 1 109.50000 418.400000
2414 14948 10455 1 109.50000 418.400000
9204 14948 10454 1 109.50000 418.400000
9204 14948 10455 1 109.50000 418.400000
10454 14948 10455 1 109.50000 418.400000
1054 14949 7930 1 109.50000 418.400000
1054 14949 9167 1 109.50000 418.400000
1054 14949 9440 1 109.50000 418.400000
7930 14949 9167 1 109.50000 418.400000
7930 14949 9440 1 109.50000 418.400000
9167 14949 9440 1 109.50000 418.400000
3124 14950 7380 1 109.50000 418.400000
3124 14950 8575 1 109.50000 418.400000
3124 14950 10456 1 109.50000 418.400000
7380 14950 8575 1 109.50000 418.400000
7380 14950 10456 1 109.50000 418.400000
8575 14950 10456 1 109.50000 418.400000
5143 14951 5354 1 109.50000 418.400000
5143 14951 7488 1 109.50000 418.400000
5143 14951 10457 1 109.50000 418.400000
5354 14951 7488 1 109.50000 418.400000
5354 14951 10457 1 109.50000 418.400000
7488 14951 10457 1 109.50000 418.400000
5639 14952 9068 1 109.50000 418.400000
5639 14952 9069 1 109.50000 418.400000
5639 14952 10458 1 109.50000 418.400000
9068 14952 9069 1 109.50000 418.400000
9068 14952 10458 1 109.50000 418.400000
9069 14952 10458 1 109.50000 418.400000
5967 14953 8791 1 109.50000 418.400000
5967 14953 9659 1 109.50000 418.400000
5967 14953 10460 1 109.50000 418.400000
8791 14953 9659 1 109.50000 418.400000
8791 14953 10460 1 109.50000 418.400000
9659 14953 10460 1 109.50000 418.400000
1435 14954 4370 1 109.50000 418.400000
1435 14954 6985 1 109.50000 418.400000
1435 14954 7675 1 109.50000 418.400000
4370 14954 6985 1 109.50000 418.400000
4370 14954 7675 1 109.50000 418.400000
6985 14954 7675 1 109.50000 418.400000
1009 14955 5458 1 109.50000 418.400000
1009 14955 7455 1 109.50000 418.400000
1009 14955 10464 1 109.50000 418.400000
5458 14955 7455 1 109.50000 418.400000
5458 14955 10464 1 109.50000 418.400000
7455 14955 10464 1 109.50000 418.400000
407 14956 408 1 109.50000 418.400000
407 14956 1352 1 109.50000 418.400000
407 14956 8278 1 109.50000 418.400000
408 14956 1352 1 109.50000 418.400000
408 14956 8278 1 109.50000 418.400000
1352 14956 8278 1 109.50000 418.400000
4070 14957 8182 1 109.50000 418.400000
4070 14957 8643 1 109.50000 418.400000
4070 14957 10465 1 109.50000 418.400000
8182 14957 8643 1 109.50000 418.400000
8182 14957 10465 1 109.50000 418.400000
8643 14957 10465 1 109.50000 418.400000
5522 14958 10466 1 109.50000 418.400000
5522 14958 10467 1 109.50000 418.400000
5522 14958 10741 1 109.50000 418.400000
10466 14958 10467 1 109.50000 418.400000
10466 14958 10741 1 109.50000 418.400000
10467 14958 10741 1 109.50000 418.400000
7942 14959 8582 1 109.50000 418.400000
7942 14959 10438 1 109.50000 418.400000
7942 14959 10468 1 109.50000 418.400000
8582 14959 10438 1 109.50000 418.400000
8582 14959 10468 1 109.50000 418.400000
10438 14959 10468 1 109.50000 418.400000
9346 14960 9532 1 109.50000 418.400000
9346 14960 9533 1 109.50000 418.400000
9346 14960 10469 1 109.50000 418.400000
9532 14960 9533 1 109.50000 418.400000
9532 14960 10469 1 109.50000 418.400000
9533 14960 10469 1 109.50000 418.400000
321 14961 3730 1 109.50000 418.400000
321 14961 4275 1 109.50000 418.400000
321 14961 10383 1 109.50000 418.400000
3730 14961 4275 1 109.50000 418.400000
3730 14961 10383 1 109.50000 418.400000
4275 14961 10383 1 109.50000 418.400000
2280 14962 6573 1 109.50000 418.400000
2280 14962 8418 1 109.50000 418.400000
2280 14962 10470 1 109.50000 418.400000
6573 14962 8418 1 109.50000 418.400000
6573 14962 10470 1 109.50000 418.400000
8418 14962 10470 1 109.50000 418.400000
1234 14963 5807 1 109.50000 418.400000
1234 14963 10471 1 109.50000 418.400000
1234 14963 10472 1 109.50000 418.400000
5807 14963 10471 1 109.50000 418.400000
5807 14963 10472 1 109.50000 418.400000
10471 14963 10472 1 109.50000 418.400000
281 14964 7161 1 109.50000 418.400000
281 14964 10473 1 109.50000 418.400000
281 14964 10474 1 109.50000 418.400000
7161 14964 10473 1 109.50000 418.400000
7161 14964 10474 1 109.50000 418.400000
10473 14964 10474 1 109.50000 418.400000
1010 14965 2218 1 109.50000 418.400000
1010 14965 6465 1 109.50000 418.400000
1010 14965 10476 1 109.50000 418.400000
2218 14965 6465 1 109.50000 418.400000
2218 14965 10476 1 109.50000 418.400000
6465 14965 10476 1 109.50000 418.400000
6728 14966 8309 1 109.50000 418.400000
6728 14966 8770 1 109.50000 418.400000
6728 14966 9422 1 109.50000 418.400000
8309 14966 8770 1 109.50000 418.400000
8309 14966 9422 1 109.50000 418.400000
8770 14966 9422 1 109.50000 418.400000
3378 14967 5391 1 109.50000 418.400000
3378 14967 9089 1 109.50000 418.400000
3378 14967 10477 1 109.50000 418.400000
5391 14967 9089 1 109.50000 418.400000
5391 14967 10477 1 109.50000 418.400000
9089 14967 10477 1 109.50000 418.400000
991 14968 5441 1 109.50000 418.400000
991 14968 8962 1 109.50000 418.400000
991 14968 11183 1 109.50000 418.400000
5441 14968 8962 1 109.50000 418.400000
5441 14968 11183 1 109.50000 418.400000
8962 14968 11183 1 109.50000 418.400000
2213 14969 2727 1 109.50000 418.400000
2213 14969 8115 1 109.50000 418.400000
2213 14969 10478 1 109.50000 418.400000
2727 14969 8115 1 109.50000 418.400000
2727 14969 10478 1 109.50000 418.400000
8115 14969 10478 1 109.50000 418.400000
5543 14970 6382 1 109.50000 418.400000
5543 14970 9653 1 109.50000 418.400000
5543 14970 10479 1 109.50000 418.400000
6382 14970 9653 1 109.50000 418.400000
6382 14970 10479 1 109.50000 418.400000
9653 14970 10479 1 109.50000 418.400000
4451 14971 5832 1 109.50000 418.400000
4451 14971 6474 1 109.50000 418.400000
4451 14971 7854 1 109.50000 418.400000
5832 14971 6474 1 109.50000 418.400000
5832 14971 7854 1 109.50000 418.400000
6474 14971 7854 1 109.50000 418.400000
2543 14972 2638 1 109.50000 418.400000
2543 14972 8981 1 109.50000 418.400000
2543 14972 10072 1 109.50000 418.400000
2638 14972 8981 1 109.50000 418.400000
2638 14972 10072 1 109.50000 418.400000
8981 14972 10072 1 109.50000 418.400000
5791 14973 5792 1 109.50000 418.400000
5791 14973 5977 1 109.50000 418.400000
5791 14973 10220 1 109.50000 418.400000
5792 14973 5977 1 109.50000 418.400000
5792 14973 10220 1 109.50000 418.400000
5977 14973 10220 1 109.50000 418.400000
312 14974 9486 1 109.50000 418.400000
312 14974 10480 1 109.50000 418.400000
312 14974 10481 1 109.50000 418.400000
9486 14974 10480 1 109.50000 418.400000
9486 14974 10481 1 109.50000 418.400000
10480 14974 10481 1 109.50000 418.400000
1834 14975 3024 1 109.50000 418.400000
1834 14975 8442 1 109.50000 418.400000
1834 14975 10482 1 109.50000 418.400000
3024 14975 8442 1 109.50000 418.400000
3024 14975 10482 1 109.50000 418.400000
8442 14975 10482 1 109.50000 418.400000
2323 14976 6577 1 109.50000 418.400000
2323 14976 7918 1 109.50000 418.400000
2323 14976 10483 1 109.50000 418.400000
6577 14976 7918 1 109.50000 418.400000
6577 14976 10483 1 109.50000 418.400000
7918 14976 10483 1 109.50000 418.400000
1213 14977 2179 1 109.50000 418.400000
1213 14977 4972 1 109.50000 418.400000
1213 14977 10484 1 109.50000 418.400000
2179 14977 4972 1 109.50000 418.400000
2179 14977 10484 1 109.50000 418.400000
4972 14977 10484 1 109.50000 418.400000
6623 14978 9798 1 109.50000 418.400000
6623 14978 10407 1 109.50000 418.400000
6623 14978 10485 1 109.50000 418.400000
9798 14978 10407 1 109.50000 418.400000
9798 14978 10485 1 109.50000 418.400000
10407 14978 10485 1 109.50000 418.400000
7574 14979 8040 1 109.50000 418.400000
7574 14979 9946 1 109.50000 418.400000
7574 14979 10486 1 109.50000 418.400000
8040 14979 9946 1 109.50000 418.400000
8040 14979 10486 1 109.50000 418.400000
9946 14979 10486 1 109.50000 418.400000
4676 14980 4677 1 109.50000 418.400000
4676 14980 6975 1 109.50000 418.400000
4676 14980 8536 1 109.50000 418.400000
4677 14980 6975 1 109.50000 418.400000
4677 14980 8536 1 109.50000 418.400000
6975 14980 8536 1 109.50000 418.400000
1856 14981 8053 1 109.50000 418.400000
1856 14981 10487 1 109.50000 418.400000
1856 14981 10488 1 109.50000 418.400000
8053 14981 10487 1 109.50000 418.400000
8053 14981 10488 1 109.50000 418.400000
10487 14981 10488 1 109.50000 418.400000
2068 14982 4919 1 109.50000 418.400000
2068 14982 10489 1 109.50000 418.400000
2068 14982 10490 1 109.50000 418.400000
4919 14982 10489 1 109.50000 418.400000
4919 14982 10490 1 109.50000 418.400000
10489 14982 10490 1 109.50000 418.400000
5264 14983 5804 1 109.50000 418.400000
5264 14983 5826 1 109.50000 418.400000
5264 14983 9908 1 109.50000 418.400000
5804 14983 5826 1 109.50000 418.400000
5804 14983 9908 1 109.50000 418.400000
5826 14983 9908 1 109.50000 418.400000
5301 14984 7081 1 109.50000 418.400000
5301 14984 7306 1 109.50000 418.400000
5301 14984 10493 1 109.50000 418.400000
7081 14984 7306 1 109.50000 418.400000
7081 14984 10493 1 109.50000 418.400000
7306 14984 10493 1 109.50000 418.400000
1375 14985 4268 1 109.50000 418.400000
1375 14985 4314 1 109.50000 418.400000
1375 14985 6629 1 109.50000 418.400000
4268 14985 4314 1 109.50000 418.400000
4268 14985 6629 1 109.50000 418.400000
4314 14985 6629 1 109.50000 418.400000
6896 14986 6897 1 109.50000 418.400000
6896 14986 8546 1 109.50000 418.400000
6896 14986 9406 1 109.50000 418.400000
6897 14986 8546 1 109.50000 418.400000
6897 14986 9406 1 109.50000 418.400000
8546 14986 9406 1 109.50000 418.400000
7652 14987 9545 1 109.50000 418.400000
7652 14987 9838 1 109.50000 418.400000
7652 14987 10494 1 109.50000 418.400000
9545 14987 9838 1 109.50000 418.400000
9545 14987 10494 1 109.50000 418.400000
9838 14987 10494 1 109.50000 418.400000
6229 14988 9118 1 109.50000 418.400000
6229 14988 9119 1 109.50000 418.400000
6229 14988 10495 1 109.50000 418.400000
9118 14988 9119 1 109.50000 418.400000
9118 14988 10495 1 109.50000 418.400000
9119 14988 10495 1 109.50000 418.400000
3910 14989 8849 1 109.50000 418.400000
3910 14989 9763 1 109.50000 418.400000
3910 14989 10496 1 109.50000 418.400000
8849 14989 9763 1 109.50000 418.400000
8849 14989 10496 1 109.50000 418.400000
9763 14989 10496 1 109.50000 418.400000
1059 14990 6523 1 109.50000 418.400000
1059 14990 9526 1 109.50000 418.400000
1059 14990 10497 1 109.50000 418.400000
6523 14990 9526 1 109.50000 418.400000
6523 14990 10497 1 109.50000 418.400000
9526 14990 10497 1 109.50000 418.400000
921 14991 8669 1 109.50000 418.400000
921 14991 8758 1 109.50000 418.400000
921 14991 10498 1 109.50000 418.400000
8669 14991 8758 1 109.50000 418.400000
8669 14991 10498 1 109.50000 418.400000
8758 14991 10498 1 109.50000 418.400000
60 14992 7746 1 109.50000 418.400000
60 14992 10428 1 109.50000 418.400000
60 14992 10499 1 109.50000 418.400000
7746 14992 10428 1 109.50000 418.400000
7746 14992 10499 1 109.50000 418.400000
10428 14992 10499 1 109.50000 418.400000
4580 14993 6110 1 109.50000 418.400000
4580 14993 8265 1 109.50000 418.400000
4580 14993 10500 1 109.50000 418.400000
6110 14993 8265 1 109.50000 418.400000
6110 14993 10500 1 109.50000 418.400000
8265 14993 10500 1 109.50000 418.400000
880 14994 5678 1 109.50000 418.400000
880 14994 6347 1 109.50000 418.400000
880 14994 7992 1 109.50000 418.400000
5678 14994 6347 1 109.50000 418.400000
5678 14994 7992 1 109.50000 418.400000
6347 14994 7992 1 109.50000 418.400000
1115 14995 10150 1 109.50000 418.400000
1115 14995 10207 1 109.50000 418.400000
1115 14995 10501 1 109.50000 418.400000
10150 14995 10207 1 109.50000 418.400000
10150 14995 10501 1 109.50000 418.400000
10207 14995 10501 1 109.50000 418.400000
3967 14996 7502 1 109.50000 418.400000
3967 14996 8453 1 109.50000 418.400000
3967 14996 10289 1 109.50000 418.400000
7502 14996 8453 1 109.50000 418.400000
7502 14996 10289 1 109.50000 418.400000
8453 14996 10289 1 109.50000 418.400000
908 14997 1924 1 109.50000 418.400000
908 14997 1925 1 109.50000 418.400000
908 14997 3846 1 109.50000 418.400000
1924 14997 1925 1 109.50000 418.400000
1924 14997 3846 1 109.50000 418.400000
1925 14997 3846 1 109.50000 418.400000
5557 14998 8202 1 109.50000 418.400000
5557 14998 9729 1 109.50000 418.400000
5557 14998 9898 1 109.50000 418.400000
8202 14998 9729 1 109.50000 418.400000
8202 14998 9898 1 109.50000 418.400000
9729 14998 9898 1 109.50000 418.400000
1982 14999 6969 1 109.50000 418.400000
1982 14999 10502 1 109.50000 418.400000
1982 14999 10503 1 109.50000 418.400000
6969 14999 10502 1 109.50000 418.400000
6969 14999 10503 1 109.50000 418.400000
10502 14999 10503 1 109.50000 418.400000
3692 15000 7804 1 109.50000 418.400000
3692 15000 8027 1 109.50000 418.400000
3692 15000 10451 1 109.50000 418.400000
7804 15000 8027 1 109.50000 418.400000
7804 15000 10451 1 109.50000 418.400000
8027 15000 10451 1 109.50000 418.400000
2692 15001 5059 1 109.50000 418.400000
2692 15001 5061 1 109.50000 418.400000
2692 15001 10504 1 109.50000 418.400000
5059 15001 5061 1 109.50000 418.400000
5059 15001 10504 1 109.50000 418.400000
5061 15001 10504 1 109.50000 418.400000
384 15002 9948 1 109.50000 418.400000
384 15002 10505 1 109.50000 418.400000
384 15002 10506 1 109.50000 418.400000
9948 15002 10505 1 109.50000 418.400000
9948 15002 10506 1 109.50000 418.400000
10505 15002 10506 1 109.50000 418.400000
5306 15003 9550 1 109.50000 418.400000
5306 15003 10166 1 109.50000 418.400000
5306 15003 10507 1 109.50000 418.400000
9550 15003 10166 1 109.50000 418.400000
9550 15003 10507 1 109.50000 418.400000
10166 15003 10507 1 109.50000 418.400000
851 15004 1048 1 109.50000 418.400000
851 15004 7719 1 109.50000 418.400000
851 15004 10331 1 109.50000 418.400000
1048 15004 7719 1 109.50000 418.400000
1048 15004 10331 1 109.50000 418.400000
7719 15004 10331 1 109.50000 418.400000
1711 15005 1712 1 109.50000 418.400000
1711 15005 10508 1 109.50000 418.400000
1711 15005 11207 1 109.50000 418.400000
1712 15005 10508 1 109.50000 418.400000
1712 15005 11207 1 109.50000 418.400000
10508 15005 11207 1 109.50000 418.400000
2167 15006 3141 1 109.50000 418.400000
2167 15006 6090 1 109.50000 418.400000
2167 15006 6324 1 109.50000 418.400000
3141 15006 6090 1 109.50000 418.400000
3141 15006 6324 1 109.50000 418.400000
6090 15006 6324 1 109.50000 418.400000
10006 15007 10509 1 109.50000 418.400000
10006 15007 10510 1 109.50000 418.400000
10006 15007 10511 1 109.50000 418.400000
10509 15007 10510 1 109.50000 418.400000
10509 15007 10511 1 109.50000 418.400000
10510 15007 10511 1 109.50000 418.400000
916 15008 956 1 109.50000 418.400000
916 15008 6467 1 109.50000 418.400000
916 15008 9614 1 109.50000 418.400000
956 15008 6467 1 109.50000 418.400000
956 15008 9614 1 109.50000 418.400000
6467 15008 9614 1 109.50000 418.400000
3377 15009 4953 1 109.50000 418.400000
3377 15009 6929 1 109.50000 418.400000
3377 15009 10512 1 109.50000 418.400000
4953 15009 6929 1 109.50000 418.400000
4953 15009 10512 1 109.50000 418.400000
6929 15009 10512 1 109.50000 418.400000
190 15010 1003 1 109.50000 418.400000
190 15010 3612 1 109.50000 418.400000
190 15010 8408 1 109.50000 418.400000
1003 15010 3612 1 109.50000 418.400000
1003 15010 8408 1 109.50000 418.400000
3612 15010 8408 1 109.50000 418.400000
2860 15011 8565 1 109.50000 418.400000
2860 15011 10515 1 109.50000 418.400000
2860 15011 10516 1 109.50000 418.400000
8565 15011 10515 1 109.50000 418.400000
8565 15011 10516 1 109.50000 418.400000
10515 15011 10516 1 109.50000 418.400000
522 15012 6758 1 109.50000 418.400000
522 15012 7316 1 109.50000 418.400000
522 15012 10517 1 109.50000 418.400000
6758 15012 7316 1 109.50000 418.400000
6758 15012 10517 1 109.50000 418.400000
7316 15012 10517 1 109.50000 418.400000
1033 15013 5554 1 109.50000 418.400000
1033 15013 6135 1 109.50000 418.400000
1033 15013 9179 1 109.50000 418.400000
5554 15013 6135 1 109.50000 418.400000
5554 15013 9179 1 109.50000 418.400000
6135 15013 9179 1 109.50000 418.400000
5824 15014 5825 1 109.50000 418.400000
5824 15014 5921 1 109.50000 418.400000
5824 15014 10519 1 109.50000 418.400000
5825 15014 5921 1 109.50000 418.400000
5825 15014 10519 1 109.50000 418.400000
5921 15014 10519 1 109.50000 418.400000
4642 15015 9312 1 109.50000 418.400000
4642 15015 9983 1 109.50000 418.400000
4642 15015 10520 1 109.50000 418.400000
9312 15015 9983 1 109.50000 418.400000
9312 15015 10520 1 109.50000 418.400000
9983 15015 10520 1 109.50000 418.400000
1138 15016 5613 1 109.50000 418.400000
1138 15016 5960 1 109.50000 418.400000
1138 15016 9657 1 109.50000 418.400000
5613 15016 5960 1 109.50000 418.400000
5613 15016 9657 1 109.50000 418.400000
5960 15016 9657 1 109.50000 418.400000
5520 15017 10398 1 109.50000 418.400000
5520 15017 10522 1 109.50000 418.400000
5520 15017 10523 1 109.50000 418.400000
10398 15017 10522 1 109.50000 418.400000
10398 15017 10523 1 109.50000 418.400000
10522 15017 10523 1 109.50000 418.400000
4798 15018 6333 1 109.50000 418.400000
4798 15018 8425 1 109.50000 418.400000
4798 15018 8839 1 109.50000 418.400000
6333 15018 8425 1 109.50000 418.400000
6333 15018 8839 1 109.50000 418.400000
8425 15018 8839 1 109.50000 418.400000
5658 15019 10447 1 109.50000 418.400000
5658 15019 10524 1 109.50000 418.400000
5658 15019 10525 1 109.50000 418.400000
10447 15019 10524 1 109.50000 418.400000
10447 15019 10525 1 109.50000 418.400000
10524 15019 10525 1 109.50000 418.400000
6771 15020 9040 1 109.50000 418.400000
6771 15020 9325 1 109.50000 418.400000
6771 15020 10526 1 109.50000 418.400000
9040 15020 9325 1 109.50000 418.400000
9040 15020 10526 1 109.50000 418.400000
9325 15020 10526 1 109.50000 418.400000
1418 15021 3305 1 109.50000 418.400000
1418 15021 3516 1 109.50000 418.400000
1418 15021 4147 1 109.50000 418.400000
3305 15021 3516 1 109.50000 418.400000
3305 15021 4147 1 109.50000 418.400000
3516 15021 4147 1 109.50000 418.400000
6612 15022 9076 1 109.50000 418.400000
6612 15022 10373 1 109.50000 418.400000
6612 15022 10527 1 109.50000 418.400000
9076 15022 10373 1 109.50000 418.400000
9076 15022 10527 1 109.50000 418.400000
10373 15022 10527 1 109.50000 418.400000
2353 15023 8421 1 109.50000 418.400000
2353 15023 8847 1 109.50000 418.400000
2353 15023 10528 1 109.50000 418.400000
8421 15023 8847 1 109.50000 418.400000
8421 15023 10528 1 109.50000 418.400000
8847 15023 10528 1 109.50000 418.400000
8436 15024 9330 1 109.50000 418.400000
8436 15024 10051 1 109.50000 418.400000
8436 15024 10171 1 109.50000 418.400000
9330 15024 10051 1 109.50000 418.400000
9330 15024 10171 1 109.50000 418.400000
10051 15024 10171 1 109.50000 418.400000
1906 15025 5364 1 109.50000 418.400000
1906 15025 10482 1 109.50000 418.400000
1906 15025 10529 1 109.50000 418.400000
5364 15025 10482 1 109.50000 418.400000
5364 15025 10529 1 109.50000 418.400000
10482 15025 10529 1 109.50000 418.400000
7042 15026 7431 1 109.50000 418.400000
7042 15026 7432 1 109.50000 418.400000
7042 15026 10530 1 109.50000 418.400000
7431 15026 7432 1 109.50000 418.400000
7431 15026 10530 1 109.50000 418.400000
7432 15026 10530 1 109.50000 418.400000
4589 15027 4590 1 109.50000 418.400000
4589 15027 4591 1 109.50000 418.400000
4589 15027 4592 1 109.50000 418.400000
4590 15027 4591 1 109.50000 418.400000
4590 15027 4592 1 109.50000 418.400000
4591 15027 4592 1 109.50000 418.400000
2050 15028 5022 1 109.50000 418.400000
2050 15028 9619 1 109.50000 418.400000
2050 15028 9988 1 109.50000 418.400000
5022 15028 9619 1 109.50000 418.400000
5022 15028 9988 1 109.50000 418.400000
9619 15028 9988 1 109.50000 418.400000
3107 15029 3108 1 109.50000 418.400000
3107 15029 8883 1 109.50000 418.400000
3107 15029 10533 1 109.50000 418.400000
3108 15029 8883 1 109.50000 418.400000
3108 15029 10533 1 109.50000 418.400000
8883 15029 10533 1 109.50000 418.400000
3916 15030 7272 1 109.50000 418.400000
3916 15030 10534 1 109.50000 418.400000
3916 15030 10535 1 109.50000 418.400000
7272 15030 10534 1 109.50000 418.400000
7272 15030 10535 1 109.50000 418.400000
10534 15030 10535 1 109.50000 418.400000
2295 15031 3121 1 109.50000 418.400000
2295 15031 4767 1 109.50000 418.400000
2295 15031 10536 1 109.50000 418.400000
3121 15031 4767 1 109.50000 418.400000
3121 15031 10536 1 109.50000 418.400000
4767 15031 10536 1 109.50000 418.400000
4099 15032 8229 1 109.50000 418.400000
4099 15032 9169 1 109.50000 418.400000
4099 15032 10537 1 109.50000 418.400000
8229 15032 9169 1 109.50000 418.400000
8229 15032 10537 1 109.50000 418.400000
9169 15032 10537 1 109.50000 418.400000
4248 15033 6373 1 109.50000 418.400000
4248 15033 9742 1 109.50000 418.400000
4248 15033 10538 1 109.50000 418.400000
6373 15033 9742 1 109.50000 418.400000
6373 15033 10538 1 109.50000 418.400000
9742 15033 10538 1 109.50000 418.400000
1825 15034 6002 1 109.50000 418.400000
1825 15034 9226 1 109.50000 418.400000
1825 15034 10539 1 109.50000 418.400000
6002 15034 9226 1 109.50000 418.400000
6002 15034 10539 1 109.50000 418.400000
9226 15034 10539 1 109.50000 418.400000
1267 15035 1846 1 109.50000 418.400000
1267 15035 8972 1 109.50000 418.400000
1267 15035 10540 1 109.50000 418.400000
1846 15035 8972 1 109.50000 418.400000
1846 15035 10540 1 109.50000 418.400000
8972 15035 10540 1 109.50000 418.400000
3280 15036 10304 1 109.50000 418.400000
3280 15036 10541 1 109.50000 418.400000
3280 15036 10542 1 109.50000 418.400000
10304 15036 10541 1 109.50000 418.400000
10304 15036 10542 1 109.50000 418.400000
10541 15036 10542 1 109.50000 418.400000
4471 15037 7494 1 109.50000 418.400000
4471 15037 8023 1 109.50000 418.400000
4471 15037 10543 1 109.50000 418.400000
7494 15037 8023 1 109.50000 418.400000
7494 15037 10543 1 109.50000 418.400000
8023 15037 10543 1 109.50000 418.400000
8313 15038 8315 1 109.50000 418.400000
8313 15038 10516 1 109.50000 418.400000
8313 15038 10544 1 109.50000 418.400000
8315 15038 10516 1 109.50000 418.400000
8315 15038 10544 1 109.50000 418.400000
10516 15038 10544 1 109.50000 418.400000
7688 15039 9124 1 109.50000 418.400000
7688 15039 10032 1 109.50000 418.400000
7688 15039 10545 1 109.50000 418.400000
9124 15039 10032 1 109.50000 418.400000
9124 15039 10545 1 109.50000 418.400000
10032 15039 10545 1 109.50000 418.400000
4071 15040 4438 1 109.50000 418.400000
4071 15040 10546 1 109.50000 418.400000
4071 15040 10547 1 109.50000 418.400000
4438 15040 10546 1 109.50000 418.400000
4438 15040 10547 1 109.50000 418.400000
10546 15040 10547 1 109.50000 418.400000
2337 15041 2339 1 109.50000 418.400000
2337 15041 2340 1 109.50000 418.400000
2337 15041 10548 1 109.50000 418.400000
2339 15041 2340 1 109.50000 418.400000
2339 15041 10548 1 109.50000 418.400000
2340 15041 10548 1 109.50000 418.400000
3375 15042 10550 1 109.50000 418.400000
3375 15042 10551 1 109.50000 418.400000
3375 15042 10552 1 109.50000 418.400000
10550 15042 10551 1 109.50000 418.400000
10550 15042 10552 1 109.50000 418.400000
10551 15042 10552 1 109.50000 418.400000
6628 15043 7326 1 109.50000 418.400000
6628 15043 10243 1 109.50000 418.400000
6628 15043 10252 1 109.50000 418.400000
7326 15043 10243 1 109.50000 418.400000
7326 15043 10252 1 109.50000 418.400000
10243 15043 10252 1 109.50000 418.400000
4820 15044 5515 1 109.50000 418.400000
4820 15044 9136 1 109.50000 418.400000
4820 15044 10553 1 109.50000 418.400000
5515 15044 9136 1 109.50000 418.400000
5515 15044 10553 1 109.50000 418.400000
9136 15044 10553 1 109.50000 418.400000
2194 15045 8668 1 109.50000 418.400000
2194 15045 10554 1 109.50000 418.400000
2194 15045 10555 1 109.50000 418.400000
8668 15045 10554 1 109.50000 418.400000
8668 15045 10555 1 109.50000 418.400000
10554 15045 10555 1 109.50000 418.400000
2544 15046 10556 1 109.50000 418.400000
2544 15046 10557 1 109.50000 418.400000
2544 15046 10558 1 109.50000 418.400000
10556 15046 10557 1 109.50000 418.400000
10556 15046 10558 1 109.50000 418.400000
10557 15046 10558 1 109.50000 418.400000
298 15047 8141 1 109.50000 418.400000
298 15047 10295 1 109.50000 418.400000
298 15047 10486 1 109.50000 418.400000
8141 15047 10295 1 109.50000 418.400000
8141 15047 10486 1 109.50000 418.400000
10295 15047 10486 1 109.50000 418.400000
3125 15048 9116 1 109.50000 418.400000
3125 15048 10380 1 109.50000 418.400000
3125 15048 10559 1 109.50000 418.400000
9116 15048 10380 1 109.50000 418.400000
9116 15048 10559 1 109.50000 418.400000
10380 15048 10559 1 109.50000 418.400000
7871 15049 10562 1 109.50000 418.400000
7871 15049 10563 1 109.50000 418.400000
7871 15049 10564 1 109.50000 418.400000
10562 15049 10563 1 109.50000 418.400000
10562 15049 10564 1 109.50000 418.400000
10563 15049 10564 1 109.50000 418.400000
1553 15050 6858 1 109.50000 418.400000
1553 15050 9887 1 109.50000 418.400000
1553 15050 10565 1 109.50000 418.400000
6858 15050 9887 1 109.50000 418.400000
6858 15050 10565 1 109.50000 418.400000
9887 15050 10565 1 109.50000 418.400000
4358 15051 7137 1 109.50000 418.400000
4358 15051 7817 1 109.50000 418.400000
4358 15051 10566 1 109.50000 418.400000
7137 15051 7817 1 109.50000 418.400000
7137 15051 10566 1 109.50000 418.400000
7817 15051 10566 1 109.50000 418.400000
1525 15052 8743 1 109.50000 418.400000
1525 15052 10233 1 109.50000 418.400000
1525 15052 10568 1 109.50000 418.400000
8743 15052 10233 1 109.50000 418.400000
8743 15052 10568 1 109.50000 418.400000
10233 15052 10568 1 109.50000 418.400000
6006 15053 9919 1 109.50000 418.400000
6006 15053 10569 1 109.50000 418.400000
6006 15053 10570 1 109.50000 418.400000
9919 15053 10569 1 109.50000 418.400000
9919 15053 10570 1 109.50000 418.400000
10569 15053 10570 1 109.50000 418.400000
3924 15054 7261 1 109.50000 418.400000
3924 15054 9703 1 109.50000 418.400000
3924 15054 10571 1 109.50000 418.400000
7261 15054 9703 1 109.50000 418.400000
7261 15054 10571 1 109.50000 418.400000
9703 15054 10571 1 109.50000 418.400000
5174 15055 8482 1 109.50000 418.400000
5174 15055 9031 1 109.50000 418.400000
5174 15055 10558 1 109.50000 418.400000
8482 15055 9031 1 109.50000 418.400000
8482 15055 10558 1 109.50000 418.400000
9031 15055 10558 1 109.50000 418.400000
534 15056 4768 1 109.50000 418.400000
534 15056 6171 1 109.50000 418.400000
534 15056 10009 1 109.50000 418.400000
4768 15056 6171 1 109.50000 418.400000
4768 15056 10009 1 109.50000 418.400000
6171 15056 10009 1 109.50000 418.400000
2169 15057 6712 1 109.50000 418.400000
2169 15057 8060 1 109.50000 418.400000
2169 15057 10573 1 109.50000 418.400000
6712 15057 8060 1 109.50000 418.400000
6712 15057 10573 1 109.50000 418.400000
8060 15057 10573 1 109.50000 418.400000
4666 15058 9753 1 109.50000 418.400000
4666 15058 10506 1 109.50000 418.400000
4666 15058 10574 1 109.50000 418.400000
9753 15058 10506 1 109.50000 418.400000
9753 15058 10574 1 109.50000 418.400000
10506 15058 10574 1 109.50000 418.400000
9303 15059 10575 1 109.50000 418.400000
9303 15059 10576 1 109.50000 418.400000
9303 15059 10577 1 109.50000 418.400000
10575 15059 10576 1 109.50000 418.400000
10575 15059 10577 1 109.50000 418.400000
10576 15059 10577 1 109.50000 418.400000
1358 15060 2035 1 109.50000 418.400000
1358 15060 3304 1 109.50000 418.400000
1358 15060 5865 1 109.50000 418.400000
2035 15060 3304 1 109.50000 418.400000
2035 15060 5865 1 109.50000 418.400000
3304 15060 5865 1 109.50000 418.400000
1350 15061 1352 1 109.50000 418.400000
1350 15061 9334 1 109.50000 418.400000
1350 15061 10578 1 109.50000 418.400000
1352 15061 9334 1 109.50000 418.400000
1352 15061 10578 1 109.50000 418.400000
9334 15061 10578 1 109.50000 418.400000
498 15062 4909 1 109.50000 418.400000
498 15062 8118 1 109.50000 418.400000
498 15062 9495 1 109.50000 418.400000
4909 15062 8118 1 109.50000 418.400000
4909 15062 9495 1 109.50000 418.400000
8118 15062 9495 1 109.50000 418.400000
1860 15063 8059 1 109.50000 418.400000
1860 15063 10579 1 109.50000 418.400000
1860 15063 10580 1 109.50000 418.400000
8059 15063 10579 1 109.50000 418.400000
8059 15063 10580 1 109.50000 418.400000
10579 15063 10580 1 109.50000 418.400000
749 15064 7519 1 109.50000 418.400000
749 15064 9308 1 109.50000 418.400000
749 15064 10173 1 109.50000 418.400000
7519 15064 9308 1 109.50000 418.400000
7519 15064 10173 1 109.50000 418.400000
9308 15064 10173 1 109.50000 418.400000
827 15065 3336 1 109.50000 418.400000
827 15065 10314 1 109.50000 418.400000
827 15065 10583 1 109.50000 418.400000
3336 15065 10314 1 109.50000 418.400000
3336 15065 10583 1 109.50000 418.400000
10314 15065 10583 1 109.50000 418.400000
1513 15066 10262 1 109.50000 418.400000
1513 15066 10584 1 109.50000 418.400000
1513 15066 10585 1 109.50000 418.400000
10262 15066 10584 1 109.50000 418.400000
10262 15066 10585 1 109.50000 418.400000
10584 15066 10585 1 109.50000 418.400000
8249 15067 9072 1 109.50000 418.400000
8249 15067 10316 1 109.50000 418.400000
8249 15067 10586 1 109.50000 418.400000
9072 15067 10316 1 109.50000 418.400000
9072 15067 10586 1 109.50000 418.400000
10316 15067 10586 1 109.50000 418.400000
4110 15068 4812 1 109.50000 418.400000
4110 15068 9873 1 109.50000 418.400000
4110 15068 10588 1 109.50000 418.400000
4812 15068 9873 1 109.50000 418.400000
4812 15068 10588 1 109.50000 418.400000
9873 15068 10588 1 109.50000 418.400000
3526 15069 4610 1 109.50000 418.400000
3526 15069 6491 1 109.50000 418.400000
3526 15069 9551 1 109.50000 418.400000
4610 15069 6491 1 109.50000 418.400000
4610 15069 9551 1 109.50000 418.400000
6491 15069 9551 1 109.50000 418.400000
884 15070 5647 1 109.50000 418.400000
884 15070 8128 1 109.50000 418.400000
884 15070 8348 1 109.50000 418.400000
5647 15070 8128 1 109.50000 418.400000
5647 15070 8348 1 109.50000 418.400000
8128 15070 8348 1 109.50000 418.400000
636 15071 4170 1 109.50000 418.400000
636 15071 8775 1 109.50000 418.400000
636 15071 10589 1 109.50000 418.400000
4170 15071 8775 1 109.50000 418.400000
4170 15071 10589 1 109.50000 418.400000
8775 15071 10589 1 109.50000 418.400000
794 15072 7801 1 109.50000 418.400000
794 15072 8113 1 109.50000 418.400000
794 15072 10590 1 109.50000 418.400000
7801 15072 8113 1 109.50000 418.400000
7801 15072 10590 1 109.50000 418.400000
8113 15072 10590 1 109.50000 418.400000
1184 15073 3868 1 109.50000 418.400000
1184 15073 4616 1 109.50000 418.400000
1184 15073 8197 1 109.50000 418.400000
3868 15073 4616 1 109.50000 418.400000
3868 15073 8197 1 109.50000 418.400000
4616 15073 8197 1 109.50000 418.400000
4348 15074 6540 1 109.50000 418.400000
4348 15074 8165 1 109.50000 418.400000
4348 15074 10594 1 109.50000 418.400000
6540 15074 8165 1 109.50000 418.400000
6540 15074 10594 1 109.50000 418.400000
8165 15074 10594 1 109.50000 418.400000
1140 15075 5803 1 109.50000 418.400000
1140 15075 9840 1 109.50000 418.400000
1140 15075 10595 1 109.50000 418.400000
5803 15075 9840 1 109.50000 418.400000
5803 15075 10595 1 109.50000 418.400000
9840 15075 10595 1 109.50000 418.400000
8329 15076 9014 1 109.50000 418.400000
8329 15076 10530 1 109.50000 418.400000
8329 15076 10596 1 109.50000 418.400000
9014 15076 10530 1 109.50000 418.400000
9014 15076 10596 1 109.50000 418.400000
10530 15076 10596 1 109.50000 418.400000
3881 15077 4476 1 109.50000 418.400000
3881 15077 10508 1 109.50000 418.400000
3881 15077 10597 1 109.50000 418.400000
4476 15077 10508 1 109.50000 418.400000
4476 15077 10597 1 109.50000 418.400000
10508 15077 10597 1 109.50000 418.400000
5108 15078 7532 1 109.50000 418.400000
5108 15078 10478 1 109.50000 418.400000
5108 15078 10598 1 109.50000 418.400000
7532 15078 10478 1 109.50000 418.400000
7532 15078 10598 1 109.50000 418.400000
10478 15078 10598 1 109.50000 418.400000
1408 15079 3486 1 109.50000 418.400000
1408 15079 7430 1 109.50000 418.400000
1408 15079 10599 1 109.50000 418.400000
3486 15079 7430 1 109.50000 418.400000
3486 15079 10599 1 109.50000 418.400000
7430 15079 10599 1 109.50000 418.400000
2478 15080 4142 1 109.50000 418.400000
2478 15080 10600 1 109.50000 418.400000
2478 15080 10601 1 109.50000 418.400000
4142 15080 10600 1 109.50000 418.400000
4142 15080 10601 1 109.50000 418.400000
10600 15080 10601 1 109.50000 418.400000
3183 15081 6937 1 109.50000 418.400000
3183 15081 8350 1 109.50000 418.400000
3183 15081 10566 1 109.50000 418.400000
6937 15081 8350 1 109.50000 418.400000
6937 15081 10566 1 109.50000 418.400000
8350 15081 10566 1 109.50000 418.400000
1748 15082 6738 1 109.50000 418.400000
1748 15082 6981 1 109.50000 418.400000
1748 15082 9900 1 109.50000 418.400000
6738 15082 6981 1 109.50000 418.400000
6738 15082 9900 1 109.50000 418.400000
6981 15082 9900 1 109.50000 418.400000
5461 15083 8471 1 109.50000 418.400000
5461 15083 9234 1 109.50000 418.400000
5461 15083 10602 1 109.50000 418.400000
8471 15083 9234 1 109.50000 418.400000
8471 15083 10602 1 109.50000 418.400000
9234 15083 10602 1 109.50000 418.400000
6938 15084 10068 1 109.50000 418.400000
6938 15084 10603 1 109.50000 418.400000
6938 15084 10604 1 109.50000 418.400000
10068 15084 10603 1 109.50000 418.400000
10068 15084 10604 1 109.50000 418.400000
10603 15084 10604 1 109.50000 418.400000
6763 15085 6773 1 109.50000 418.400000
6763 15085 9970 1 109.50000 418.400000
6763 15085 10605 1 109.50000 418.400000
6773 15085 9970 1 109.50000 418.400000
6773 15085 10605 1 109.50000 418.400000
9970 15085 10605 1 109.50000 418.400000
4524 15086 8510 1 109.50000 418.400000
4524 15086 8959 1 109.50000 418.400000
4524 15086 10606 1 109.50000 418.400000
8510 15086 8959 1 109.50000 418.400000
8510 15086 10606 1 109.50000 418.400000
8959 15086 10606 1 109.50000 418.400000
4351 15087 4669 1 109.50000 418.400000
4351 15087 7078 1 109.50000 418.400000
4351 15087 7337 1 109.50000 418.400000
4669 15087 7078 1 109.50000 418.400000
4669 15087 7337 1 109.50000 418.400000
7078 15087 7337 1 109.50000 418.400000
326 15088 2174 1 109.50000 418.400000
326 15088 8260 1 109.50000 418.400000
326 15088 9627 1 109.50000 418.400000
2174 15088 8260 1 109.50000 418.400000
2174 15088 9627 1 109.50000 418.400000
8260 15088 9627 1 109.50000 418.400000
3970 15089 7312 1 109.50000 418.400000
3970 15089 10608 1 109.50000 418.400000
3970 15089 10609 1 109.50000 418.400000
7312 15089 10608 1 109.50000 418.400000
7312 15089 10609 1 109.50000 418.400000
10608 15089 10609 1 109.50000 418.400000
8354 15090 10591 1 109.50000 418.400000
8354 15090 10610 1 109.50000 418.400000
8354 15090 10611 1 109.50000 418.400000
10591 15090 10610 1 109.50000 418.400000
10591 15090 10611 1 109.50000 418.400000
10610 15090 10611 1 109.50000 418.400000
6134 15091 7281 1 109.50000 418.400000
6134 15091 7282 1 109.50000 418.400000
6134 15091 8964 1 109.50000 418.400000
7281 15091 7282 1 109.50000 418.400000
7281 15091 8964 1 109.50000 418.400000
7282 15091 8964 1 109.50000 418.400000
6596 15092 10585 1 109.50000 418.400000
6596 15092 10612 1 109.50000 418.400000
6596 15092 10613 1 109.50000 418.400000
10585 15092 10612 1 109.50000 418.400000
10585 15092 10613 1 109.50000 418.400000
10612 15092 10613 1 109.50000 418.400000
575 15093 6299 1 109.50000 418.400000
575 15093 8859 1 109.50000 418.400000
575 15093 10251 1 109.50000 418.400000
6299 15093 8859 1 109.50000 418.400000
6299 15093 10251 1 109.50000 418.400000
8859 15093 10251 1 109.50000 418.400000
1598 15094 7689 1 109.50000 418.400000
1598 15094 10257 1 109.50000 418.400000
1598 15094 10614 1 109.50000 418.400000
7689 15094 10257 1 109.50000 418.400000
7689 15094 10614 1 109.50000 418.400000
10257 15094 10614 1 109.50000 418.400000
4043 15095 9909 1 109.50000 418.400000
4043 15095 10382 1 109.50000 418.400000
4043 15095 10519 1 109.50000 418.400000
9909 15095 10382 1 109.50000 418.400000
9909 15095 10519 1 109.50000 418.400000
10382 15095 10519 1 109.50000 418.400000
586 15096 3442 1 109.50000 418.400000
586 15096 7274 1 109.50000 418.400000
586 15096 10615 1 109.50000 418.400000
3442 15096 7274 1 109.50000 418.400000
3442 15096 10615 1 109.50000 418.400000
7274 15096 10615 1 109.50000 418.400000
4122 15097 6022 1 109.50000 418.400000
4122 15097 8533 1 109.50000 418.400000
4122 15097 8951 1 109.50000 418.400000
6022 15097 8533 1 109.50000 418.400000
6022 15097 8951 1 109.50000 418.400000
8533 15097 8951 1 109.50000 418.400000
627 15098 3898 1 109.50000 418.400000
627 15098 10323 1 109.50000 418.400000
627 15098 10616 1 109.50000 418.400000
3898 15098 10323 1 109.50000 418.400000
3898 15098 10616 1 109.50000 418.400000
10323 15098 10616 1 109.50000 418.400000
910 15099 4273 1 109.50000 418.400000
910 15099 10617 1 109.50000 418.400000
910 15099 10618 1 109.50000 418.400000
4273 15099 10617 1 109.50000 418.400000
4273 15099 10618 1 109.50000 418.400000
10617 15099 10618 1 109.50000 418.400000
1537 15100 3582 1 109.50000 418.400000
1537 15100 10430 1 109.50000 418.400000
1537 15100 10619 1 109.50000 418.400000
3582 15100 10430 1 109.50000 418.400000
3582 15100 10619 1 109.50000 418.400000
10430 15100 10619 1 109.50000 418.400000
7172 15101 7521 1 109.50000 418.400000
7172 15101 7522 1 109.50000 418.400000
7172 15101 8953 1 109.50000 418.400000
7521 15101 7522 1 109.50000 418.400000
7521 15101 8953 1 109.50000 418.400000
7522 15101 8953 1 109.50000 418.400000
2282 15102 6762 1 109.50000 418.400000
2282 15102 6763 1 109.50000 418.400000
2282 15102 10526 1 109.50000 418.400000
6762 15102 6763 1 109.50000 418.400000
6762 15102 10526 1 109.50000 418.400000
6763 15102 10526 1 109.50000 418.400000
4282 15103 9442 1 109.50000 418.400000
4282 15103 10620 1 109.50000 418.400000
4282 15103 10621 1 109.50000 418.400000
9442 15103 10620 1 109.50000 418.400000
9442 15103 10621 1 109.50000 418.400000
10620 15103 10621 1 109.50000 418.400000
2837 15104 6315 1 109.50000 418.400000
2837 15104 10008 1 109.50000 418.400000
2837 15104 10622 1 109.50000 418.400000
6315 15104 10008 1 109.50000 418.400000
6315 15104 10622 1 109.50000 418.400000
10008 15104 10622 1 109.50000 418.400000
10188 15105 10623 1 109.50000 418.400000
10188 15105 10624 1 109.50000 418.400000
10188 15105 10647 1 109.50000 418.400000
10623 15105 10624 1 109.50000 418.400000
10623 15105 10647 1 109.50000 418.400000
10624 15105 10647 1 109.50000 418.400000
8082 15106 8749 1 109.50000 418.400000
8082 15106 10147 1 109.50000 418.400000
8082 15106 10627 1 109.50000 418.400000
8749 15106 10147 1 109.50000 418.400000
8749 15106 10627 1 109.50000 418.400000
10147 15106 10627 1 109.50000 418.400000
5231 15107 5233 1 109.50000 418.400000
5231 15107 10629 1 109.50000 418.400000
5231 15107 10630 1 109.50000 418.400000
5233 15107 10629 1 109.50000 418.400000
5233 15107 10630 1 109.50000 418.400000
10629 15107 10630 1 109.50000 418.400000
336 15108 337 1 109.50000 418.400000
336 15108 339 1 109.50000 418.400000
336 15108 10631 1 109.50000 418.400000
337 15108 339 1 109.50000 418.400000
337 15108 10631 1 109.50000 418.400000
339 15108 10631 1 109.50000 418.400000
3277 15109 4188 1 109.50000 418.400000
3277 15109 7117 1 109.50000 418.400000
3277 15109 9737 1 109.50000 418.400000
4188 15109 7117 1 109.50000 418.400000
4188 15109 9737 1 109.50000 418.400000
7117 15109 9737 1 109.50000 418.400000
602 15110 716 1 109.50000 418.400000
602 15110 717 1 109.50000 418.400000
602 15110 9198 1 109.50000 418.400000
716 15110 717 1 109.50000 418.400000
716 15110 9198 1 109.50000 418.400000
717 15110 9198 1 109.50000 418.400000
2418 15111 6080 1 109.50000 418.400000
2418 15111 10432 1 109.50000 418.400000
2418 15111 10632 1 109.50000 418.400000
6080 15111 10432 1 109.50000 418.400000
6080 15111 10632 1 109.50000 418.400000
10432 15111 10632 1 109.50000 418.400000
387 15112 6430 1 109.50000 418.400000
387 15112 10142 1 109.50000 418.400000
387 15112 10633 1 109.50000 418.400000
6430 15112 10142 1 109.50000 418.400000
6430 15112 10633 1 109.50000 418.400000
10142 15112 10633 1 109.50000 418.400000
3229 15113 8247 1 109.50000 418.400000
3229 15113 8301 1 109.50000 418.400000
3229 15113 10121 1 109.50000 418.400000
8247 15113 8301 1 109.50000 418.400000
8247 15113 10121 1 109.50000 418.400000
8301 15113 10121 1 109.50000 418.400000
1512 15114 10342 1 109.50000 418.400000
1512 15114 10627 1 109.50000 418.400000
1512 15114 10634 1 109.50000 418.400000
10342 15114 10627 1 109.50000 418.400000
10342 15114 10634 1 109.50000 418.400000
10627 15114 10634 1 109.50000 418.400000
1061 15115 2228 1 109.50000 418.400000
1061 15115 3426 1 109.50000 418.400000
1061 15115 7005 1 109.50000 418.400000
2228 15115 3426 1 109.50000 418.400000
2228 15115 7005 1 109.50000 418.400000
3426 15115 7005 1 109.50000 418.400000
4566 15116 10131 1 109.50000 418.400000
4566 15116 10635 1 109.50000 418.400000
4566 15116 10636 1 109.50000 418.400000
10131 15116 10635 1 109.50000 418.400000
10131 15116 10636 1 109.50000 418.400000
10635 15116 10636 1 109.50000 418.400000
6153 15117 7610 1 109.50000 418.400000
6153 15117 8341 1 109.50000 418.400000
6153 15117 10485 1 109.50000 418.400000
7610 15117 8341 1 109.50000 418.400000
7610 15117 10485 1 109.50000 418.400000
8341 15117 10485 1 109.50000 418.400000
1332 15118 7959 1 109.50000 418.400000
1332 15118 9628 1 109.50000 418.400000
1332 15118 10637 1 109.50000 418.400000
7959 15118 9628 1 109.50000 418.400000
7959 15118 10637 1 109.50000 418.400000
9628 15118 10637 1 109.50000 418.400000
4582 15119 4619 1 109.50000 418.400000
4582 15119 6934 1 109.50000 418.400000
4582 15119 10638 1 109.50000 418.400000
4619 15119 6934 1 109.50000 418.400000
4619 15119 10638 1 109.50000 418.400000
6934 15119 10638 1 109.50000 418.400000
10639 15120 10640 1 109.50000 418.400000
10639 15120 10641 1 109.50000 418.400000
10639 15120 10642 1 109.50000 418.400000
10640 15120 10641 1 109.50000 418.400000
10640 15120 10642 1 109.50000 418.400000
10641 15120 10642 1 109.50000 418.400000
2352 15121 6169 1 109.50000 418.400000
2352 15121 9994 1 109.50000 418.400000
2352 15121 10643 1 109.50000 418.400000
6169 15121 9994 1 109.50000 418.400000
6169 15121 10643 1 109.50000 418.400000
9994 15121 10643 1 109.50000 418.400000
1487 15122 8677 1 109.50000 418.400000
1487 15122 9791 1 109.50000 418.400000
1487 15122 10644 1 109.50000 418.400000
8677 15122 9791 1 109.50000 418.400000
8677 15122 10644 1 109.50000 418.400000
9791 15122 10644 1 109.50000 418.400000
4749 15123 8505 1 109.50000 418.400000
4749 15123 8935 1 109.50000 418.400000
4749 15123 10361 1 109.50000 418.400000
8505 15123 8935 1 109.50000 418.400000
8505 15123 10361 1 109.50000 418.400000
8935 15123 10361 1 109.50000 418.400000
3552 15124 4699 1 109.50000 418.400000
3552 15124 6692 1 109.50000 418.400000
3552 15124 10552 1 109.50000 418.400000
4699 15124 6692 1 109.50000 418.400000
4699 15124 10552 1 109.50000 418.400000
6692 15124 10552 1 109.50000 418.400000
4246 15125 4486 1 109.50000 418.400000
4246 15125 10645 1 109.50000 418.400000
4246 15125 10646 1 109.50000 418.400000
4486 15125 10645 1 109.50000 418.400000
4486 15125 10646 1 109.50000 418.400000
10645 15125 10646 1 109.50000 418.400000
6830 15126 8292 1 109.50000 418.400000
6830 15126 9759 1 109.50000 418.400000
6830 15126 10647 1 109.50000 418.400000
8292 15126 9759 1 109.50000 418.400000
8292 15126 10647 1 109.50000 418.400000
9759 15126 10647 1 109.50000 418.400000
3726 15127 6710 1 109.50000 418.400000
3726 15127 9077 1 109.50000 418.400000
3726 15127 10648 1 109.50000 418.400000
6710 15127 9077 1 109.50000 418.400000
6710 15127 10648 1 109.50000 418.400000
9077 15127 10648 1 109.50000 418.400000
2588 15128 5888 1 109.50000 418.400000
2588 15128 10276 1 109.50000 418.400000
2588 15128 10649 1 109.50000 418.400000
5888 15128 10276 1 109.50000 418.400000
5888 15128 10649 1 109.50000 418.400000
10276 15128 10649 1 109.50000 418.400000
4917 15129 5769 1 109.50000 418.400000
4917 15129 7647 1 109.50000 418.400000
4917 15129 10650 1 109.50000 418.400000
5769 15129 7647 1 109.50000 418.400000
5769 15129 10650 1 109.50000 418.400000
7647 15129 10650 1 109.50000 418.400000
5539 15130 5724 1 109.50000 418.400000
5539 15130 10651 1 109.50000 418.400000
5539 15130 10652 1 109.50000 418.400000
5724 15130 10651 1 109.50000 418.400000
5724 15130 10652 1 109.50000 418.400000
10651 15130 10652 1 109.50000 418.400000
218 15131 3678 1 109.50000 418.400000
218 15131 7065 1 109.50000 418.400000
218 15131 10653 1 109.50000 418.400000
3678 15131 7065 1 109.50000 418.400000
3678 15131 10653 1 109.50000 418.400000
7065 15131 10653 1 109.50000 418.400000
4897 15132 9483 1 109.50000 418.400000
4897 15132 10604 1 109.50000 418.400000
4897 15132 10654 1 109.50000 418.400000
9483 15132 10604 1 109.50000 418.400000
9483 15132 10654 1 109.50000 418.400000
10604 15132 10654 1 109.50000 418.400000
2765 15133 10655 1 109.50000 418.400000
2765 15133 10656 1 109.50000 418.400000
2765 15133 10657 1 109.50000 418.400000
10655 15133 10656 1 109.50000 418.400000
10655 15133 10657 1 109.50000 418.400000
10656 15133 10657 1 109.50000 418.400000
5128 15134 7171 1 109.50000 418.400000
5128 15134 10538 1 109.50000 418.400000
5128 15134 10658 1 109.50000 418.400000
7171 15134 10538 1 109.50000 418.400000
7171 15134 10658 1 109.50000 418.400000
10538 15134 10658 1 109.50000 418.400000
97 15135 932 1 109.50000 418.400000
97 15135 5185 1 109.50000 418.400000
97 15135 8705 1 109.50000 418.400000
932 15135 5185 1 109.50000 418.400000
932 15135 8705 1 109.50000 418.400000
5185 15135 8705 1 109.50000 418.400000
5497 15136 9305 1 109.50000 418.400000
5497 15136 10035 1 109.50000 418.400000
5497 15136 10540 1 109.50000 418.400000
9305 15136 10035 1 109.50000 418.400000
9305 15136 10540 1 109.50000 418.400000
10035 15136 10540 1 109.50000 418.400000
2812 15137 7344 1 109.50000 418.400000
2812 15137 8592 1 109.50000 418.400000
2812 15137 10659 1 109.50000 418.400000
7344 15137 8592 1 109.50000 418.400000
7344 15137 10659 1 109.50000 418.400000
8592 15137 10659 1 109.50000 418.400000
907 15138 10014 1 109.50000 418.400000
907 15138 10660 1 109.50000 418.400000
907 15138 10661 1 109.50000 418.400000
10014 15138 10660 1 109.50000 418.400000
10014 15138 10661 1 109.50000 418.400000
10660 15138 10661 1 109.50000 418.400000
1029 15139 7636 1 109.50000 418.400000
1029 15139 10586 1 109.50000 418.400000
1029 15139 10662 1 109.50000 418.400000
7636 15139 10586 1 109.50000 418.400000
7636 15139 10662 1 109.50000 418.400000
10586 15139 10662 1 109.50000 418.400000
9028 15140 9867 1 109.50000 418.400000
9028 15140 10477 1 109.50000 418.400000
9028 15140 10663 1 109.50000 418.400000
9867 15140 10477 1 109.50000 418.400000
9867 15140 10663 1 109.50000 418.400000
10477 15140 10663 1 109.50000 418.400000
7630 15141 9929 1 109.50000 418.400000
7630 15141 10328 1 109.50000 418.400000
7630 15141 10664 1 109.50000 418.400000
9929 15141 10328 1 109.50000 418.400000
9929 15141 10664 1 109.50000 418.400000
10328 15141 10664 1 109.50000 418.400000
3258 15142 9883 1 109.50000 418.400000
3258 15142 10522 1 109.50000 418.400000
3258 15142 10665 1 109.50000 418.400000
9883 15142 10522 1 109.50000 418.400000
9883 15142 10665 1 109.50000 418.400000
10522 15142 10665 1 109.50000 418.400000
1130 15143 1483 1 109.50000 418.400000
1130 15143 7520 1 109.50000 418.400000
1130 15143 8072 1 109.50000 418.400000
1483 15143 7520 1 109.50000 418.400000
1483 15143 8072 1 109.50000 418.400000
7520 15143 8072 1 109.50000 418.400000
7926 15144 9773 1 109.50000 418.400000
7926 15144 10081 1 109.50000 418.400000
7926 15144 10666 1 109.50000 418.400000
9773 15144 10081 1 109.50000 418.400000
9773 15144 10666 1 109.50000 418.400000
10081 15144 10666 1 109.50000 418.400000
7713 15145 8019 1 109.50000 418.400000
7713 15145 9677 1 109.50000 418.400000
7713 15145 10648 1 109.50000 418.400000
8019 15145 9677 1 109.50000 418.400000
8019 15145 10648 1 109.50000 418.400000
9677 15145 10648 1 109.50000 418.400000
8641 15146 9275 1 109.50000 418.400000
8641 15146 9955 1 109.50000 418.400000
8641 15146 10667 1 109.50000 418.400000
9275 15146 9955 1 109.50000 418.400000
9275 15146 10667 1 109.50000 418.400000
9955 15146 10667 1 109.50000 418.400000
2130 15147 6375 1 109.50000 418.400000
2130 15147 6849 1 109.50000 418.400000
2130 15147 9810 1 109.50000 418.400000
6375 15147 6849 1 109.50000 418.400000
6375 15147 9810 1 109.50000 418.400000
6849 15147 9810 1 109.50000 418.400000
5060 15148 6049 1 109.50000 418.400000
5060 15148 7966 1 109.50000 418.400000
5060 15148 10668 1 109.50000 418.400000
6049 15148 7966 1 109.50000 418.400000
6049 15148 10668 1 109.50000 418.400000
7966 15148 10668 1 109.50000 418.400000
945 15149 5085 1 109.50000 418.400000
945 15149 5493 1 109.50000 418.400000
945 15149 8069 1 109.50000 418.400000
5085 15149 5493 1 109.50000 418.400000
5085 15149 8069 1 109.50000 418.400000
5493 15149 8069 1 109.50000 418.400000
9212 15150 10669 1 109.50000 418.400000
9212 15150 10670 1 109.50000 418.400000
9212 15150 10671 1 109.50000 418.400000
10669 15150 10670 1 109.50000 418.400000
10669 15150 10671 1 109.50000 418.400000
10670 15150 10671 1 109.50000 418.400000
7006 15151 9162 1 109.50000 418.400000
7006 15151 10062 1 109.50000 418.400000
7006 15151 10672 1 109.50000 418.400000
9162 15151 10062 1 109.50000 418.400000
9162 15151 10672 1 109.50000 418.400000
10062 15151 10672 1 109.50000 418.400000
1126 15152 5966 1 109.50000 418.400000
1126 15152 6603 1 109.50000 418.400000
1126 15152 7749 1 109.50000 418.400000
5966 15152 6603 1 109.50000 418.400000
5966 15152 7749 1 109.50000 418.400000
6603 15152 7749 1 109.50000 418.400000
34 15153 3780 1 109.50000 418.400000
34 15153 7434 1 109.50000 418.400000
34 15153 8508 1 109.50000 418.400000
3780 15153 7434 1 109.50000 418.400000
3780 15153 8508 1 109.50000 418.400000
7434 15153 8508 1 109.50000 418.400000
7377 15154 9590 1 109.50000 418.400000
7377 15154 9861 1 109.50000 418.400000
7377 15154 10336 1 109.50000 418.400000
9590 15154 9861 1 109.50000 418.400000
9590 15154 10336 1 109.50000 418.400000
9861 15154 10336 1 109.50000 418.400000
8836 15155 8892 1 109.50000 418.400000
8836 15155 9043 1 109.50000 418.400000
8836 15155 9738 1 109.50000 418.400000
8892 15155 9043 1 109.50000 418.400000
8892 15155 9738 1 109.50000 418.400000
9043 15155 9738 1 109.50000 418.400000
5612 15156 6818 1 109.50000 418.400000
5612 15156 7210 1 109.50000 418.400000
5612 15156 10673 1 109.50000 418.400000
6818 15156 7210 1 109.50000 418.400000
6818 15156 10673 1 109.50000 418.400000
7210 15156 10673 1 109.50000 418.400000
4608 15157 6361 1 109.50000 418.400000
4608 15157 10002 1 109.50000 418.400000
4608 15157 10674 1 109.50000 418.400000
6361 15157 10002 1 109.50000 418.400000
6361 15157 10674 1 109.50000 418.400000
10002 15157 10674 1 109.50000 418.400000
6454 15158 6667 1 109.50000 418.400000
6454 15158 9686 1 109.50000 418.400000
6454 15158 10675 1 109.50000 418.400000
6667 15158 9686 1 109.50000 418.400000
6667 15158 10675 1 109.50000 418.400000
9686 15158 10675 1 109.50000 418.400000
2795 15159 2797 1 109.50000 418.400000
2795 15159 4598 1 109.50000 418.400000
2795 15159 10476 1 109.50000 418.400000
2797 15159 4598 1 109.50000 418.400000
2797 15159 10476 1 109.50000 418.400000
4598 15159 10476 1 109.50000 418.400000
5426 15160 7429 1 109.50000 418.400000
5426 15160 10417 1 109.50000 418.400000
5426 15160 10677 1 109.50000 418.400000
7429 15160 10417 1 109.50000 418.400000
7429 15160 10677 1 109.50000 418.400000
10417 15160 10677 1 109.50000 418.400000
1591 15161 8771 1 109.50000 418.400000
1591 15161 9695 1 109.50000 418.400000
1591 15161 10668 1 109.50000 418.400000
8771 15161 9695 1 109.50000 418.400000
8771 15161 10668 1 109.50000 418.400000
9695 15161 10668 1 109.50000 418.400000
5641 15162 5809 1 109.50000 418.400000
5641 15162 6009 1 109.50000 418.400000
5641 15162 6478 1 109.50000 418.400000
5809 15162 6009 1 109.50000 418.400000
5809 15162 6478 1 109.50000 418.400000
6009 15162 6478 1 109.50000 418.400000
5335 15163 5337 1 109.50000 418.400000
5335 15163 5338 1 109.50000 418.400000
5335 15163 8456 1 109.50000 418.400000
5337 15163 5338 1 109.50000 418.400000
5337 15163 8456 1 109.50000 418.400000
5338 15163 8456 1 109.50000 418.400000
3685 15164 7577 1 109.50000 418.400000
3685 15164 10155 1 109.50000 418.400000
3685 15164 10682 1 109.50000 418.400000
7577 15164 10155 1 109.50000 418.400000
7577 15164 10682 1 109.50000 418.400000
10155 15164 10682 1 109.50000 418.400000
299 15165 8917 1 109.50000 418.400000
299 15165 10019 1 109.50000 418.400000
299 15165 10683 1 109.50000 418.400000
8917 15165 10019 1 109.50000 418.400000
8917 15165 10683 1 109.50000 418.400000
10019 15165 10683 1 109.50000 418.400000
6442 15166 7947 1 109.50000 418.400000
6442 15166 9482 1 109.50000 418.400000
6442 15166 10684 1 109.50000 418.400000
7947 15166 9482 1 109.50000 418.400000
7947 15166 10684 1 109.50000 418.400000
9482 15166 10684 1 109.50000 418.400000
479 15167 1904 1 109.50000 418.400000
479 15167 9878 1 109.50000 418.400000
479 15167 9926 1 109.50000 418.400000
1904 15167 9878 1 109.50000 418.400000
1904 15167 9926 1 109.50000 418.400000
9878 15167 9926 1 109.50000 418.400000
373 15168 5077 1 109.50000 418.400000
373 15168 10029 1 109.50000 418.400000
373 15168 10687 1 109.50000 418.400000
5077 15168 10029 1 109.50000 418.400000
5077 15168 10687 1 109.50000 418.400000
10029 15168 10687 1 109.50000 418.400000
3894 15169 10688 1 109.50000 418.400000
3894 15169 10689 1 109.50000 418.400000
3894 15169 10690 1 109.50000 418.400000
10688 15169 10689 1 109.50000 418.400000
10688 15169 10690 1 109.50000 418.400000
10689 15169 10690 1 109.50000 418.400000
8704 15170 9252 1 109.50000 418.400000
8704 15170 9446 1 109.50000 418.400000
8704 15170 10691 1 109.50000 418.400000
9252 15170 9446 1 109.50000 418.400000
9252 15170 10691 1 109.50000 418.400000
9446 15170 10691 1 109.50000 418.400000
1998 15171 9413 1 109.50000 418.400000
1998 15171 10692 1 109.50000 418.400000
1998 15171 10693 1 109.50000 418.400000
9413 15171 10692 1 109.50000 418.400000
9413 15171 10693 1 109.50000 418.400000
10692 15171 10693 1 109.50000 418.400000
1530 15172 3989 1 109.50000 418.400000
1530 15172 10123 1 109.50000 418.400000
1530 15172 10186 1 109.50000 418.400000
3989 15172 10123 1 109.50000 418.400000
3989 15172 10186 1 109.50000 418.400000
10123 15172 10186 1 109.50000 418.400000
4009 15173 5954 1 109.50000 418.400000
4009 15173 6897 1 109.50000 418.400000
4009 15173 10695 1 109.50000 418.400000
5954 15173 6897 1 109.50000 418.400000
5954 15173 10695 1 109.50000 418.400000
6897 15173 10695 1 109.50000 418.400000
1821 15174 8644 1 109.50000 418.400000
1821 15174 10384 1 109.50000 418.400000
1821 15174 10696 1 109.50000 418.400000
8644 15174 10384 1 109.50000 418.400000
8644 15174 10696 1 109.50000 418.400000
10384 15174 10696 1 109.50000 418.400000
4130 15175 5075 1 109.50000 418.400000
4130 15175 8245 1 109.50000 418.400000
4130 15175 10431 1 109.50000 418.400000
5075 15175 8245 1 109.50000 418.400000
5075 15175 10431 1 109.50000 418.400000
8245 15175 10431 1 109.50000 418.400000
4180 15176 4567 1 109.50000 418.400000
4180 15176 5341 1 109.50000 418.400000
4180 15176 7693 1 109.50000 418.400000
4567 15176 5341 1 109.50000 418.400000
4567 15176 7693 1 109.50000 418.400000
5341 15176 7693 1 109.50000 418.400000
4058 15177 4830 1 109.50000 418.400000
4058 15177 5883 1 109.50000 418.400000
4058 15177 8393 1 109.50000 418.400000
4830 15177 5883 1 109.50000 418.400000
4830 15177 8393 1 109.50000 418.400000
5883 15177 8393 1 109.50000 418.400000
961 15178 5685 1 109.50000 418.400000
961 15178 9567 1 109.50000 418.400000
961 15178 10697 1 109.50000 418.400000
5685 15178 9567 1 109.50000 418.400000
5685 15178 10697 1 109.50000 418.400000
9567 15178 10697 1 109.50000 418.400000
461 15179 6007 1 109.50000 418.400000
461 15179 10175 1 109.50000 418.400000
461 15179 10179 1 109.50000 418.400000
6007 15179 10175 1 109.50000 418.400000
6007 15179 10179 1 109.50000 418.400000
10175 15179 10179 1 109.50000 418.400000
3978 15180 6273 1 109.50000 418.400000
3978 15180 9414 1 109.50000 418.400000
3978 15180 9779 1 109.50000 418.400000
6273 15180 9414 1 109.50000 418.400000
6273 15180 9779 1 109.50000 418.400000
9414 15180 9779 1 109.50000 418.400000
5048 15181 7967 1 109.50000 418.400000
5048 15181 10699 1 109.50000 418.400000
5048 15181 10700 1 109.50000 418.400000
7967 15181 10699 1 109.50000 418.400000
7967 15181 10700 1 109.50000 418.400000
10699 15181 10700 1 109.50000 418.400000
2777 15182 5662 1 109.50000 418.400000
2777 15182 6484 1 109.50000 418.400000
2777 15182 10511 1 109.50000 418.400000
5662 15182 6484 1 109.50000 418.400000
5662 15182 10511 1 109.50000 418.400000
6484 15182 10511 1 109.50000 418.400000
5111 15183 7538 1 109.50000 418.400000
5111 15183 7593 1 109.50000 418.400000
5111 15183 9932 1 109.50000 418.400000
7538 15183 7593 1 109.50000 418.400000
7538 15183 9932 1 109.50000 418.400000
7593 15183 9932 1 109.50000 418.400000
6067 15184 9537 1 109.50000 418.400000
6067 15184 10246 1 109.50000 418.400000
6067 15184 10702 1 109.50000 418.400000
9537 15184 10246 1 109.50000 418.400000
9537 15184 10702 1 109.50000 418.400000
10246 15184 10702 1 109.50000 418.400000
1561 15185 3744 1 109.50000 418.400000
1561 15185 6300 1 109.50000 418.400000
1561 15185 7179 1 109.50000 418.400000
3744 15185 6300 1 109.50000 418.400000
3744 15185 7179 1 109.50000 418.400000
6300 15185 7179 1 109.50000 418.400000
1337 15186 1456 1 109.50000 418.400000
1337 15186 2776 1 109.50000 418.400000
1337 15186 10369 1 109.50000 418.400000
1456 15186 2776 1 109.50000 418.400000
1456 15186 10369 1 109.50000 418.400000
2776 15186 10369 1 109.50000 418.400000
2220 15187 4124 1 109.50000 418.400000
2220 15187 4951 1 109.50000 418.400000
2220 15187 10418 1 109.50000 418.400000
4124 15187 4951 1 109.50000 418.400000
4124 15187 10418 1 109.50000 418.400000
4951 15187 10418 1 109.50000 418.400000
622 15188 2310 1 109.50000 418.400000
622 15188 7324 1 109.50000 418.400000
622 15188 8256 1 109.50000 418.400000
2310 15188 7324 1 109.50000 418.400000
2310 15188 8256 1 109.50000 418.400000
7324 15188 8256 1 109.50000 418.400000
133 15189 1425 1 109.50000 418.400000
133 15189 1835 1 109.50000 418.400000
133 15189 6806 1 109.50000 418.400000
1425 15189 1835 1 109.50000 418.400000
1425 15189 6806 1 109.50000 418.400000
1835 15189 6806 1 109.50000 418.400000
464 15190 1264 1 109.50000 418.400000
464 15190 10659 1 109.50000 418.400000
464 15190 10703 1 109.50000 418.400000
1264 15190 10659 1 109.50000 418.400000
1264 15190 10703 1 109.50000 418.400000
10659 15190 10703 1 109.50000 418.400000
1296 15191 3079 1 109.50000 418.400000
1296 15191 9801 1 109.50000 418.400000
1296 15191 10704 1 109.50000 418.400000
3079 15191 9801 1 109.50000 418.400000
3079 15191 10704 1 109.50000 418.400000
9801 15191 10704 1 109.50000 418.400000
877 15192 5480 1 109.50000 418.400000
877 15192 9879 1 109.50000 418.400000
877 15192 10352 1 109.50000 418.400000
5480 15192 9879 1 109.50000 418.400000
5480 15192 10352 1 109.50000 418.400000
9879 15192 10352 1 109.50000 418.400000
2866 15193 4702 1 109.50000 418.400000
2866 15193 9378 1 109.50000 418.400000
2866 15193 10706 1 109.50000 418.400000
4702 15193 9378 1 109.50000 418.400000
4702 15193 10706 1 109.50000 418.400000
9378 15193 10706 1 109.50000 418.400000
4500 15194 4921 1 109.50000 418.400000
4500 15194 10707 1 109.50000 418.400000
4500 15194 10708 1 109.50000 418.400000
4921 15194 10707 1 109.50000 418.400000
4921 15194 10708 1 109.50000 418.400000
10707 15194 10708 1 109.50000 418.400000
4062 15195 7873 1 109.50000 418.400000
4062 15195 9633 1 109.50000 418.400000
4062 15195 10709 1 109.50000 418.400000
7873 15195 9633 1 109.50000 418.400000
7873 15195 10709 1 109.50000 418.400000
9633 15195 10709 1 109.50000 418.400000
7323 15196 7325 1 109.50000 418.400000
7323 15196 8600 1 109.50000 418.400000
7323 15196 10423 1 109.50000 418.400000
7325 15196 8600 1 109.50000 418.400000
7325 15196 10423 1 109.50000 418.400000
8600 15196 10423 1 109.50000 418.400000
1867 15197 9005 1 109.50000 418.400000
1867 15197 10710 1 109.50000 418.400000
1867 15197 10711 1 109.50000 418.400000
9005 15197 10710 1 109.50000 418.400000
9005 15197 10711 1 109.50000 418.400000
10710 15197 10711 1 109.50000 418.400000
3642 15198 5090 1 109.50000 418.400000
3642 15198 7849 1 109.50000 418.400000
3642 15198 8562 1 109.50000 418.400000
5090 15198 7849 1 109.50000 418.400000
5090 15198 8562 1 109.50000 418.400000
7849 15198 8562 1 109.50000 418.400000
2486 15199 4394 1 109.50000 418.400000
2486 15199 10712 1 109.50000 418.400000
2486 15199 10713 1 109.50000 418.400000
4394 15199 10712 1 109.50000 418.400000
4394 15199 10713 1 109.50000 418.400000
10712 15199 10713 1 109.50000 418.400000
6011 15200 8466 1 109.50000 418.400000
6011 15200 9937 1 109.50000 418.400000
6011 15200 10571 1 109.50000 418.400000
8466 15200 9937 1 109.50000 418.400000
8466 15200 10571 1 109.50000 418.400000
9937 15200 10571 1 109.50000 418.400000
173 15201 5231 1 109.50000 418.400000
173 15201 10714 1 109.50000 418.400000
173 15201 10715 1 109.50000 418.400000
5231 15201 10714 1 109.50000 418.400000
5231 15201 10715 1 109.50000 418.400000
10714 15201 10715 1 109.50000 418.400000
511 15202 3932 1 109.50000 418.400000
511 15202 5165 1 109.50000 418.400000
511 15202 8694 1 109.50000 418.400000
3932 15202 5165 1 109.50000 418.400000
3932 15202 8694 1 109.50000 418.400000
5165 15202 8694 1 109.50000 418.400000
6625 15203 6685 1 109.50000 418.400000
6625 15203 7404 1 109.50000 418.400000
6625 15203 10716 1 109.50000 418.400000
6685 15203 7404 1 109.50000 418.400000
6685 15203 10716 1 109.50000 418.400000
7404 15203 10716 1 109.50000 418.400000
2252 15204 7293 1 109.50000 418.400000
2252 15204 8188 1 109.50000 418.400000
2252 15204 10717 1 109.50000 418.400000
7293 15204 8188 1 109.50000 418.400000
7293 15204 10717 1 109.50000 418.400000
8188 15204 10717 1 109.50000 418.400000
3136 15205 3681 1 109.50000 418.400000
3136 15205 9453 1 109.50000 418.400000
3136 15205 10718 1 109.50000 418.400000
3681 15205 9453 1 109.50000 418.400000
3681 15205 10718 1 109.50000 418.400000
9453 15205 10718 1 109.50000 418.400000
5139 15206 8589 1 109.50000 418.400000
5139 15206 9245 1 109.50000 418.400000
5139 15206 9770 1 109.50000 418.400000
8589 15206 9245 1 109.50000 418.400000
8589 15206 9770 1 109.50000 418.400000
9245 15206 9770 1 109.50000 418.400000
5371 15207 5377 1 109.50000 418.400000
5371 15207 9881 1 109.50000 418.400000
5371 15207 10719 1 109.50000 418.400000
5377 15207 9881 1 109.50000 418.400000
5377 15207 10719 1 109.50000 418.400000
9881 15207 10719 1 109.50000 418.400000
8156 15208 9741 1 109.50000 418.400000
8156 15208 10664 1 109.50000 418.400000
8156 15208 10720 1 109.50000 418.400000
9741 15208 10664 1 109.50000 418.400000
9741 15208 10720 1 109.50000 418.400000
10664 15208 10720 1 109.50000 418.400000
2947 15209 7602 1 109.50000 418.400000
2947 15209 9799 1 109.50000 418.400000
2947 15209 10721 1 109.50000 418.400000
7602 15209 9799 1 109.50000 418.400000
7602 15209 10721 1 109.50000 418.400000
9799 15209 10721 1 109.50000 418.400000
8337 15210 8730 1 109.50000 418.400000
8337 15210 8781 1 109.50000 418.400000
8337 15210 9377 1 109.50000 418.400000
8730 15210 8781 1 109.50000 418.400000
8730 15210 9377 1 109.50000 418.400000
8781 15210 9377 1 109.50000 418.400000
4002 15211 5596 1 109.50000 418.400000
4002 15211 7560 1 109.50000 418.400000
4002 15211 8140 1 109.50000 418.400000
5596 15211 7560 1 109.50000 418.400000
5596 15211 8140 1 109.50000 418.400000
7560 15211 8140 1 109.50000 418.400000
3243 15212 3864 1 109.50000 418.400000
3243 15212 7987 1 109.50000 418.400000
3243 15212 10652 1 109.50000 418.400000
3864 15212 7987 1 109.50000 418.400000
3864 15212 10652 1 109.50000 418.400000
7987 15212 10652 1 109.50000 418.400000
4311 15213 6816 1 109.50000 418.400000
4311 15213 6898 1 109.50000 418.400000
4311 15213 9315 1 109.50000 418.400000
6816 15213 6898 1 109.50000 418.400000
6816 15213 9315 1 109.50000 418.400000
6898 15213 9315 1 109.50000 418.400000
1662 15214 5791 1 109.50000 418.400000
1662 15214 10722 1 109.50000 418.400000
1662 15214 10723 1 109.50000 418.400000
5791 15214 10722 1 109.50000 418.400000
5791 15214 10723 1 109.50000 418.400000
10722 15214 10723 1 109.50000 418.400000
530 15215 6422 1 109.50000 418.400000
530 15215 8152 1 109.50000 418.400000
530 15215 10325 1 109.50000 418.400000
6422 15215 8152 1 109.50000 418.400000
6422 15215 10325 1 109.50000 418.400000
8152 15215 10325 1 109.50000 418.400000
2424 15216 3591 1 109.50000 418.400000
2424 15216 4183 1 109.50000 418.400000
2424 15216 4957 1 109.50000 418.400000
3591 15216 4183 1 109.50000 418.400000
3591 15216 4957 1 109.50000 418.400000
4183 15216 4957 1 109.50000 418.400000
471 15217 5577 1 109.50000 418.400000
471 15217 5578 1 109.50000 418.400000
471 15217 9997 1 109.50000 418.400000
5577 15217 5578 1 109.50000 418.400000
5577 15217 9997 1 109.50000 418.400000
5578 15217 9997 1 109.50000 418.400000
1762 15218 8789 1 109.50000 418.400000
1762 15218 10724 1 109.50000 418.400000
1762 15218 10725 1 109.50000 418.400000
8789 15218 10724 1 109.50000 418.400000
8789 15218 10725 1 109.50000 418.400000
10724 15218 10725 1 109.50000 418.400000
1746 15219 3030 1 109.50000 418.400000
1746 15219 3887 1 109.50000 418.400000
1746 15219 5988 1 109.50000 418.400000
3030 15219 3887 1 109.50000 418.400000
3030 15219 5988 1 109.50000 418.400000
3887 15219 5988 1 109.50000 418.400000
7792 15220 8239 1 109.50000 418.400000
7792 15220 8548 1 109.50000 418.400000
7792 15220 10726 1 109.50000 418.400000
8239 15220 8548 1 109.50000 418.400000
8239 15220 10726 1 109.50000 418.400000
8548 15220 10726 1 109.50000 418.400000
5279 15221 7203 1 109.50000 418.400000
5279 15221 8584 1 109.50000 418.400000
5279 15221 10728 1 109.50000 418.400000
7203 15221 8584 1 109.50000 418.400000
7203 15221 10728 1 109.50000 418.400000
8584 15221 10728 1 109.50000 418.400000
4036 15222 4038 1 109.50000 418.400000
4036 15222 10218 1 109.50000 418.400000
4036 15222 10302 1 109.50000 418.400000
4038 15222 10218 1 109.50000 418.400000
4038 15222 10302 1 109.50000 418.400000
10218 15222 10302 1 109.50000 418.400000
5788 15223 5806 1 109.50000 418.400000
5788 15223 10322 1 109.50000 418.400000
5788 15223 10507 1 109.50000 418.400000
5806 15223 10322 1 109.50000 418.400000
5806 15223 10507 1 109.50000 418.400000
10322 15223 10507 1 109.50000 418.400000
5984 15224 8991 1 109.50000 418.400000
5984 15224 10412 1 109.50000 418.400000
5984 15224 10729 1 109.50000 418.400000
8991 15224 10412 1 109.50000 418.400000
8991 15224 10729 1 109.50000 418.400000
10412 15224 10729 1 109.50000 418.400000
4950 15225 6705 1 109.50000 418.400000
4950 15225 7879 1 109.50000 418.400000
4950 15225 8636 1 109.50000 418.400000
6705 15225 7879 1 109.50000 418.400000
6705 15225 8636 1 109.50000 418.400000
7879 15225 8636 1 109.50000 418.400000
6541 15226 8214 1 109.50000 418.400000
6541 15226 10654 1 109.50000 418.400000
6541 15226 10730 1 109.50000 418.400000
8214 15226 10654 1 109.50000 418.400000
8214 15226 10730 1 109.50000 418.400000
10654 15226 10730 1 109.50000 418.400000
3475 15227 5583 1 109.50000 418.400000
3475 15227 7482 1 109.50000 418.400000
3475 15227 10731 1 109.50000 418.400000
5583 15227 7482 1 109.50000 418.400000
5583 15227 10731 1 109.50000 418.400000
7482 15227 10731 1 109.50000 418.400000
9324 15228 10122 1 109.50000 418.400000
9324 15228 10341 1 109.50000 418.400000
9324 15228 10732 1 109.50000 418.400000
10122 15228 10341 1 109.50000 418.400000
10122 15228 10732 1 109.50000 418.400000
10341 15228 10732 1 109.50000 418.400000
4149 15229 9655 1 109.50000 418.400000
4149 15229 10733 1 109.50000 418.400000
4149 15229 10734 1 109.50000 418.400000
9655 15229 10733 1 109.50000 418.400000
9655 15229 10734 1 109.50000 418.400000
10733 15229 10734 1 109.50000 418.400000
1053 15230 8541 1 109.50000 418.400000
1053 15230 9785 1 109.50000 418.400000
1053 15230 10735 1 109.50000 418.400000
8541 15230 9785 1 109.50000 418.400000
8541 15230 10735 1 109.50000 418.400000
9785 15230 10735 1 109.50000 418.400000
3320 15231 9340 1 109.50000 418.400000
3320 15231 10126 1 109.50000 418.400000
3320 15231 10738 1 109.50000 418.400000
9340 15231 10126 1 109.50000 418.400000
9340 15231 10738 1 109.50000 418.400000
10126 15231 10738 1 109.50000 418.400000
1724 15232 3866 1 109.50000 418.400000
1724 15232 10132 1 109.50000 418.400000
1724 15232 10739 1 109.50000 418.400000
3866 15232 10132 1 109.50000 418.400000
3866 15232 10739 1 109.50000 418.400000
10132 15232 10739 1 109.50000 418.400000
2 15233 4597 1 109.50000 418.400000
2 15233 8039 1 109.50000 418.400000
2 15233 10396 1 109.50000 418.400000
4597 15233 8039 1 109.50000 418.400000
4597 15233 10396 1 109.50000 418.400000
8039 15233 10396 1 109.50000 418.400000
550 15234 6495 1 109.50000 418.400000
550 15234 7787 1 109.50000 418.400000
550 15234 8364 1 109.50000 418.400000
6495 15234 7787 1 109.50000 418.400000
6495 15234 8364 1 109.50000 418.400000
7787 15234 8364 1 109.50000 418.400000
733 15235 2930 1 109.50000 418.400000
733 15235 9882 1 109.50000 418.400000
733 15235 10740 1 109.50000 418.400000
2930 15235 9882 1 109.50000 418.400000
2930 15235 10740 1 109.50000 418.400000
9882 15235 10740 1 109.50000 418.400000
6681 15236 10247 1 109.50000 418.400000
6681 15236 10675 1 109.50000 418.400000
6681 15236 10741 1 109.50000 418.400000
10247 15236 10675 1 109.50000 418.400000
10247 15236 10741 1 109.50000 418.400000
10675 15236 10741 1 109.50000 418.400000
2197 15237 3782 1 109.50000 418.400000
2197 15237 6115 1 109.50000 418.400000
2197 15237 10598 1 109.50000 418.400000
3782 15237 6115 1 109.50000 418.400000
3782 15237 10598 1 109.50000 418.400000
6115 15237 10598 1 109.50000 418.400000
650 15238 10633 1 109.50000 418.400000
650 15238 10745 1 109.50000 418.400000
650 15238 10746 1 109.50000 418.400000
10633 15238 10745 1 109.50000 418.400000
10633 15238 10746 1 109.50000 418.400000
10745 15238 10746 1 109.50000 418.400000
1725 15239 3269 1 109.50000 418.400000
1725 15239 9301 1 109.50000 418.400000
1725 15239 10748 1 109.50000 418.400000
3269 15239 9301 1 109.50000 418.400000
3269 15239 10748 1 109.50000 418.400000
9301 15239 10748 1 109.50000 418.400000
3630 15240 7542 1 109.50000 418.400000
3630 15240 10749 1 109.50000 418.400000
3630 15240 10877 1 109.50000 418.400000
7542 15240 10749 1 109.50000 418.400000
7542 15240 10877 1 109.50000 418.400000
10749 15240 10877 1 109.50000 418.400000
4877 15241 7437 1 109.50000 418.400000
4877 15241 8264 1 109.50000 418.400000
4877 15241 10750 1 109.50000 418.400000
7437 15241 8264 1 109.50000 418.400000
7437 15241 10750 1 109.50000 418.400000
8264 15241 10750 1 109.50000 418.400000
270 15242 683 1 109.50000 418.400000
270 15242 9323 1 109.50000 418.400000
270 15242 9569 1 109.50000 418.400000
683 15242 9323 1 109.50000 418.400000
683 15242 9569 1 109.50000 418.400000
9323 15242 9569 1 109.50000 418.400000
305 15243 5740 1 109.50000 418.400000
305 15243 7026 1 109.50000 418.400000
305 15243 8762 1 109.50000 418.400000
5740 15243 7026 1 109.50000 418.400000
5740 15243 8762 1 109.50000 418.400000
7026 15243 8762 1 109.50000 418.400000
7900 15244 9173 1 109.50000 418.400000
7900 15244 9175 1 109.50000 418.400000
7900 15244 10751 1 109.50000 418.400000
9173 15244 9175 1 109.50000 418.400000
9173 15244 10751 1 109.50000 418.400000
9175 15244 10751 1 109.50000 418.400000
7366 15245 9038 1 109.50000 418.400000
7366 15245 9311 1 109.50000 418.400000
7366 15245 9849 1 109.50000 418.400000
9038 15245 9311 1 109.50000 418.400000
9038 15245 9849 1 109.50000 418.400000
9311 15245 9849 1 109.50000 418.400000
1119 15246 4042 1 109.50000 418.400000
1119 15246 6594 1 109.50000 418.400000
1119 15246 10634 1 109.50000 418.400000
4042 15246 6594 1 109.50000 418.400000
4042 15246 10634 1 109.50000 418.400000
6594 15246 10634 1 109.50000 418.400000
276 15247 3424 1 109.50000 418.400000
276 15247 9699 1 109.50000 418.400000
276 15247 10752 1 109.50000 418.400000
3424 15247 9699 1 109.50000 418.400000
3424 15247 10752 1 109.50000 418.400000
9699 15247 10752 1 109.50000 418.400000
496 15248 8710 1 109.50000 418.400000
496 15248 10753 1 109.50000 418.400000
496 15248 10754 1 109.50000 418.400000
8710 15248 10753 1 109.50000 418.400000
8710 15248 10754 1 109.50000 418.400000
10753 15248 10754 1 109.50000 418.400000
3036 15249 4719 1 109.50000 418.400000
3036 15249 8718 1 109.50000 418.400000
3036 15249 10616 1 109.50000 418.400000
4719 15249 8718 1 109.50000 418.400000
4719 15249 10616 1 109.50000 418.400000
8718 15249 10616 1 109.50000 418.400000
1385 15250 2138 1 109.50000 418.400000
1385 15250 7884 1 109.50000 418.400000
1385 15250 10050 1 109.50000 418.400000
2138 15250 7884 1 109.50000 418.400000
2138 15250 10050 1 109.50000 418.400000
7884 15250 10050 1 109.50000 418.400000
2283 15251 2886 1 109.50000 418.400000
2283 15251 6991 1 109.50000 418.400000
2283 15251 10666 1 109.50000 418.400000
2886 15251 6991 1 109.50000 418.400000
2886 15251 10666 1 109.50000 418.400000
6991 15251 10666 1 109.50000 418.400000
2838 15252 6053 1 109.50000 418.400000
2838 15252 9459 1 109.50000 418.400000
2838 15252 10618 1 109.50000 418.400000
6053 15252 9459 1 109.50000 418.400000
6053 15252 10618 1 109.50000 418.400000
9459 15252 10618 1 109.50000 418.400000
3460 15253 5860 1 109.50000 418.400000
3460 15253 5861 1 109.50000 418.400000
3460 15253 10111 1 109.50000 418.400000
5860 15253 5861 1 109.50000 418.400000
5860 15253 10111 1 109.50000 418.400000
5861 15253 10111 1 109.50000 418.400000
8437 15254 8439 1 109.50000 418.400000
8437 15254 9746 1 109.50000 418.400000
8437 15254 10755 1 109.50000 418.400000
8439 15254 9746 1 109.50000 418.400000
8439 15254 10755 1 109.50000 418.400000
9746 15254 10755 1 109.50000 418.400000
9499 15255 9658 1 109.50000 418.400000
9499 15255 9869 1 109.50000 418.400000
9499 15255 10154 1 109.50000 418.400000
9658 15255 9869 1 109.50000 418.400000
9658 15255 10154 1 109.50000 418.400000
9869 15255 10154 1 109.50000 418.400000
1669 15256 5286 1 109.50000 418.400000
1669 15256 8885 1 109.50000 418.400000
1669 15256 9197 1 109.50000 418.400000
5286 15256 8885 1 109.50000 418.400000
5286 15256 9197 1 109.50000 418.400000
8885 15256 9197 1 109.50000 418.400000
914 15257 2729 1 109.50000 418.400000
914 15257 9964 1 109.50000 418.400000
914 15257 10759 1 109.50000 418.400000
2729 15257 9964 1 109.50000 418.400000
2729 15257 10759 1 109.50000 418.400000
9964 15257 10759 1 109.50000 418.400000
3053 15258 4235 1 109.50000 418.400000
3053 15258 7821 1 109.50000 418.400000
3053 15258 8742 1 109.50000 418.400000
4235 15258 7821 1 109.50000 418.400000
4235 15258 8742 1 109.50000 418.400000
7821 15258 8742 1 109.50000 418.400000
1592 15259 6516 1 109.50000 418.400000
1592 15259 7964 1 109.50000 418.400000
1592 15259 10760 1 109.50000 418.400000
6516 15259 7964 1 109.50000 418.400000
6516 15259 10760 1 109.50000 418.400000
7964 15259 10760 1 109.50000 418.400000
7207 15260 8624 1 109.50000 418.400000
7207 15260 10750 1 109.50000 418.400000
7207 15260 10761 1 109.50000 418.400000
8624 15260 10750 1 109.50000 418.400000
8624 15260 10761 1 109.50000 418.400000
10750 15260 10761 1 109.50000 418.400000
3422 15261 3680 1 109.50000 418.400000
3422 15261 3835 1 109.50000 418.400000
3422 15261 10762 1 109.50000 418.400000
3680 15261 3835 1 109.50000 418.400000
3680 15261 10762 1 109.50000 418.400000
3835 15261 10762 1 109.50000 418.400000
595 15262 2959 1 109.50000 418.400000
595 15262 8969 1 109.50000 418.400000
595 15262 10665 1 109.50000 418.400000
2959 15262 8969 1 109.50000 418.400000
2959 15262 10665 1 109.50000 418.400000
8969 15262 10665 1 109.50000 418.400000
3154 15263 10621 1 109.50000 418.400000
3154 15263 10723 1 109.50000 418.400000
3154 15263 10763 1 109.50000 418.400000
10621 15263 10723 1 109.50000 418.400000
10621 15263 10763 1 109.50000 418.400000
10723 15263 10763 1 109.50000 418.400000
6343 15264 6344 1 109.50000 418.400000
6343 15264 10003 1 109.50000 418.400000
6343 15264 10326 1 109.50000 418.400000
6344 15264 10003 1 109.50000 418.400000
6344 15264 10326 1 109.50000 418.400000
10003 15264 10326 1 109.50000 418.400000
1250 15265 2005 1 109.50000 418.400000
1250 15265 5598 1 109.50000 418.400000
1250 15265 10362 1 109.50000 418.400000
2005 15265 5598 1 109.50000 418.400000
2005 15265 10362 1 109.50000 418.400000
5598 15265 10362 1 109.50000 418.400000
4078 15266 5616 1 109.50000 418.400000
4078 15266 9389 1 109.50000 418.400000
4078 15266 9512 1 109.50000 418.400000
5616 15266 9389 1 109.50000 418.400000
5616 15266 9512 1 109.50000 418.400000
9389 15266 9512 1 109.50000 418.400000
9003 15267 10764 1 109.50000 418.400000
9003 15267 10765 1 109.50000 418.400000
9003 15267 10766 1 109.50000 418.400000
10764 15267 10765 1 109.50000 418.400000
10764 15267 10766 1 109.50000 418.400000
10765 15267 10766 1 109.50000 418.400000
1281 15268 7499 1 109.50000 418.400000
1281 15268 7920 1 109.50000 418.400000
1281 15268 10767 1 109.50000 418.400000
7499 15268 7920 1 109.50000 418.400000
7499 15268 10767 1 109.50000 418.400000
7920 15268 10767 1 109.50000 418.400000
7383 15269 7709 1 109.50000 418.400000
7383 15269 10517 1 109.50000 418.400000
7383 15269 10768 1 109.50000 418.400000
7709 15269 10517 1 109.50000 418.400000
7709 15269 10768 1 109.50000 418.400000
10517 15269 10768 1 109.50000 418.400000
9729 15270 9730 1 109.50000 418.400000
9729 15270 10767 1 109.50000 418.400000
9729 15270 10769 1 109.50000 418.400000
9730 15270 10767 1 109.50000 418.400000
9730 15270 10769 1 109.50000 418.400000
10767 15270 10769 1 109.50000 418.400000
3770 15271 7017 1 109.50000 418.400000
3770 15271 7421 1 109.50000 418.400000
3770 15271 8811 1 109.50000 418.400000
7017 15271 7421 1 109.50000 418.400000
7017 15271 8811 1 109.50000 418.400000
7421 15271 8811 1 109.50000 418.400000
1220 15272 1857 1 109.50000 418.400000
1220 15272 5896 1 109.50000 418.400000
1220 15272 10770 1 109.50000 418.400000
1857 15272 5896 1 109.50000 418.400000
1857 15272 10770 1 109.50000 418.400000
5896 15272 10770 1 109.50000 418.400000
1678 15273 5509 1 109.50000 418.400000
1678 15273 9739 1 109.50000 418.400000
1678 15273 10771 1 109.50000 418.400000
5509 15273 9739 1 109.50000 418.400000
5509 15273 10771 1 109.50000 418.400000
9739 15273 10771 1 109.50000 418.400000
5455 15274 6847 1 109.50000 418.400000
5455 15274 10108 1 109.50000 418.400000
5455 15274 10772 1 109.50000 418.400000
6847 15274 10108 1 109.50000 418.400000
6847 15274 10772 1 109.50000 418.400000
10108 15274 10772 1 109.50000 418.400000
2312 15275 6954 1 109.50000 418.400000
2312 15275 9607 1 109.50000 418.400000
2312 15275 10773 1 109.50000 418.400000
6954 15275 9607 1 109.50000 418.400000
6954 15275 10773 1 109.50000 418.400000
9607 15275 10773 1 109.50000 418.400000
6951 15276 7734 1 109.50000 418.400000
6951 15276 8512 1 109.50000 418.400000
6951 15276 10774 1 109.50000 418.400000
7734 15276 8512 1 109.50000 418.400000
7734 15276 10774 1 109.50000 418.400000
8512 15276 10774 1 109.50000 418.400000
2825 15277 5457 1 109.50000 418.400000
2825 15277 6729 1 109.50000 418.400000
2825 15277 10775 1 109.50000 418.400000
5457 15277 6729 1 109.50000 418.400000
5457 15277 10775 1 109.50000 418.400000
6729 15277 10775 1 109.50000 418.400000
8259 15278 10690 1 109.50000 418.400000
8259 15278 10776 1 109.50000 418.400000
8259 15278 10777 1 109.50000 418.400000
10690 15278 10776 1 109.50000 418.400000
10690 15278 10777 1 109.50000 418.400000
10776 15278 10777 1 109.50000 418.400000
3585 15279 4202 1 109.50000 418.400000
3585 15279 5899 1 109.50000 418.400000
3585 15279 9087 1 109.50000 418.400000
4202 15279 5899 1 109.50000 418.400000
4202 15279 9087 1 109.50000 418.400000
5899 15279 9087 1 109.50000 418.400000
1160 15280 1377 1 109.50000 418.400000
1160 15280 8800 1 109.50000 418.400000
1160 15280 10778 1 109.50000 418.400000
1377 15280 8800 1 109.50000 418.400000
1377 15280 10778 1 109.50000 418.400000
8800 15280 10778 1 109.50000 418.400000
2509 15281 5471 1 109.50000 418.400000
2509 15281 10779 1 109.50000 418.400000
2509 15281 10780 1 109.50000 418.400000
5471 15281 10779 1 109.50000 418.400000
5471 15281 10780 1 109.50000 418.400000
10779 15281 10780 1 109.50000 418.400000
2427 15282 5908 1 109.50000 418.400000
2427 15282 6220 1 109.50000 418.400000
2427 15282 10765 1 109.50000 418.400000
5908 15282 6220 1 109.50000 418.400000
5908 15282 10765 1 109.50000 418.400000
6220 15282 10765 1 109.50000 418.400000
2571 15283 6785 1 109.50000 418.400000
2571 15283 6787 1 109.50000 418.400000
2571 15283 7329 1 109.50000 418.400000
6785 15283 6787 1 109.50000 418.400000
6785 15283 7329 1 109.50000 418.400000
6787 15283 7329 1 109.50000 418.400000
2924 15284 6549 1 109.50000 418.400000
2924 15284 7187 1 109.50000 418.400000
2924 15284 9112 1 109.50000 418.400000
6549 15284 7187 1 109.50000 418.400000
6549 15284 9112 1 109.50000 418.400000
7187 15284 9112 1 109.50000 418.400000
2065 15285 4665 1 109.50000 418.400000
2065 15285 9752 1 109.50000 418.400000
2065 15285 10781 1 109.50000 418.400000
4665 15285 9752 1 109.50000 418.400000
4665 15285 10781 1 109.50000 418.400000
9752 15285 10781 1 109.50000 418.400000
1238 15286 3147 1 109.50000 418.400000
1238 15286 7851 1 109.50000 418.400000
1238 15286 7852 1 109.50000 418.400000
3147 15286 7851 1 109.50000 418.400000
3147 15286 7852 1 109.50000 418.400000
7851 15286 7852 1 109.50000 418.400000
3451 15287 3942 1 109.50000 418.400000
3451 15287 6513 1 109.50000 418.400000
3451 15287 8305 1 109.50000 418.400000
3942 15287 6513 1 109.50000 418.400000
3942 15287 8305 1 109.50000 418.400000
6513 15287 8305 1 109.50000 418.400000
1667 15288 10327 1 109.50000 418.400000
1667 15288 10782 1 109.50000 418.400000
1667 15288 10783 1 109.50000 418.400000
10327 15288 10782 1 109.50000 418.400000
10327 15288 10783 1 109.50000 418.400000
10782 15288 10783 1 109.50000 418.400000
2476 15289 8099 1 109.50000 418.400000
2476 15289 9987 1 109.50000 418.400000
2476 15289 10584 1 109.50000 418.400000
8099 15289 9987 1 109.50000 418.400000
8099 15289 10584 1 109.50000 418.400000
9987 15289 10584 1 109.50000 418.400000
1292 15290 5036 1 109.50000 418.400000
1292 15290 8590 1 109.50000 418.400000
1292 15290 9953 1 109.50000 418.400000
5036 15290 8590 1 109.50000 418.400000
5036 15290 9953 1 109.50000 418.400000
8590 15290 9953 1 109.50000 418.400000
3127 15291 9527 1 109.50000 418.400000
3127 15291 9949 1 109.50000 418.400000
3127 15291 10784 1 109.50000 418.400000
9527 15291 9949 1 109.50000 418.400000
9527 15291 10784 1 109.50000 418.400000
9949 15291 10784 1 109.50000 418.400000
6269 15292 7016 1 109.50000 418.400000
6269 15292 8651 1 109.50000 418.400000
6269 15292 8832 1 109.50000 418.400000
7016 15292 8651 1 109.50000 418.400000
7016 15292 8832 1 109.50000 418.400000
8651 15292 8832 1 109.50000 418.400000
48 15293 3530 1 109.50000 418.400000
48 15293 7660 1 109.50000 418.400000
48 15293 10474 1 109.50000 418.400000
3530 15293 7660 1 109.50000 418.400000
3530 15293 10474 1 109.50000 418.400000
7660 15293 10474 1 109.50000 418.400000
5145 15294 10752 1 109.50000 418.400000
5145 15294 10785 1 109.50000 418.400000
5145 15294 10786 1 109.50000 418.400000
10752 15294 10785 1 109.50000 418.400000
10752 15294 10786 1 109.50000 418.400000
10785 15294 10786 1 109.50000 418.400000
405 15295 9936 1 109.50000 418.400000
405 15295 10224 1 109.50000 418.400000
405 15295 10578 1 109.50000 418.400000
9936 15295 10224 1 109.50000 418.400000
9936 15295 10578 1 109.50000 418.400000
10224 15295 10578 1 109.50000 418.400000
5342 15296 9497 1 109.50000 418.400000
5342 15296 10782 1 109.50000 418.400000
5342 15296 10787 1 109.50000 418.400000
9497 15296 10782 1 109.50000 418.400000
9497 15296 10787 1 109.50000 418.400000
10782 15296 10787 1 109.50000 418.400000
220 15297 3423 1 109.50000 418.400000
220 15297 8220 1 109.50000 418.400000
220 15297 9328 1 109.50000 418.400000
3423 15297 8220 1 109.50000 418.400000
3423 15297 9328 1 109.50000 418.400000
8220 15297 9328 1 109.50000 418.400000
2558 15298 8416 1 109.50000 418.400000
2558 15298 8968 1 109.50000 418.400000
2558 15298 10740 1 109.50000 418.400000
8416 15298 8968 1 109.50000 418.400000
8416 15298 10740 1 109.50000 418.400000
8968 15298 10740 1 109.50000 418.400000
6473 15299 9153 1 109.50000 418.400000
6473 15299 10099 1 109.50000 418.400000
6473 15299 10788 1 109.50000 418.400000
9153 15299 10099 1 109.50000 418.400000
9153 15299 10788 1 109.50000 418.400000
10099 15299 10788 1 109.50000 418.400000
6859 15300 7753 1 109.50000 418.400000
6859 15300 9027 1 109.50000 418.400000
6859 15300 9613 1 109.50000 418.400000
7753 15300 9027 1 109.50000 418.400000
7753 15300 9613 1 109.50000 418.400000
9027 15300 9613 1 109.50000 418.400000
4518 15301 8633 1 109.50000 418.400000
4518 15301 10783 1 109.50000 418.400000
4518 15301 10789 1 109.50000 418.400000
8633 15301 10783 1 109.50000 418.400000
8633 15301 10789 1 109.50000 418.400000
10783 15301 10789 1 109.50000 418.400000
3869 15302 8207 1 109.50000 418.400000
3869 15302 9952 1 109.50000 418.400000
3869 15302 10791 1 109.50000 418.400000
8207 15302 9952 1 109.50000 418.400000
8207 15302 10791 1 109.50000 418.400000
9952 15302 10791 1 109.50000 418.400000
1589 15303 4739 1 109.50000 418.400000
1589 15303 10792 1 109.50000 418.400000
1589 15303 10793 1 109.50000 418.400000
4739 15303 10792 1 109.50000 418.400000
4739 15303 10793 1 109.50000 418.400000
10792 15303 10793 1 109.50000 418.400000
9555 15304 9944 1 109.50000 418.400000
9555 15304 10237 1 109.50000 418.400000
9555 15304 10794 1 109.50000 418.400000
9944 15304 10237 1 109.50000 418.400000
9944 15304 10794 1 109.50000 418.400000
10237 15304 10794 1 109.50000 418.400000
1013 15305 7856 1 109.50000 418.400000
1013 15305 10399 1 109.50000 418.400000
1013 15305 10796 1 109.50000 418.400000
7856 15305 10399 1 109.50000 418.400000
7856 15305 10796 1 109.50000 418.400000
10399 15305 10796 1 109.50000 418.400000
7811 15306 9697 1 109.50000 418.400000
7811 15306 10797 1 109.50000 418.400000
7811 15306 10798 1 109.50000 418.400000
9697 15306 10797 1 109.50000 418.400000
9697 15306 10798 1 109.50000 418.400000
10797 15306 10798 1 109.50000 418.400000
4063 15307 8707 1 109.50000 418.400000
4063 15307 10461 1 109.50000 418.400000
4063 15307 10549 1 109.50000 418.400000
8707 15307 10461 1 109.50000 418.400000
8707 15307 10549 1 109.50000 418.400000
10461 15307 10549 1 109.50000 418.400000
188 15308 9410 1 109.50000 418.400000
188 15308 9711 1 109.50000 418.400000
188 15308 10799 1 109.50000 418.400000
9410 15308 9711 1 109.50000 418.400000
9410 15308 10799 1 109.50000 418.400000
9711 15308 10799 1 109.50000 418.400000
6900 15309 7459 1 109.50000 418.400000
6900 15309 7668 1 109.50000 418.400000
6900 15309 8008 1 109.50000 418.400000
7459 15309 7668 1 109.50000 418.400000
7459 15309 8008 1 109.50000 418.400000
7668 15309 8008 1 109.50000 418.400000
2784 15310 2905 1 109.50000 418.400000
2784 15310 6807 1 109.50000 418.400000
2784 15310 8728 1 109.50000 418.400000
2905 15310 6807 1 109.50000 418.400000
2905 15310 8728 1 109.50000 418.400000
6807 15310 8728 1 109.50000 418.400000
8223 15311 9616 1 109.50000 418.400000
8223 15311 10800 1 109.50000 418.400000
8223 15311 10801 1 109.50000 418.400000
9616 15311 10800 1 109.50000 418.400000
9616 15311 10801 1 109.50000 418.400000
10800 15311 10801 1 109.50000 418.400000
1438 15312 9146 1 109.50000 418.400000
1438 15312 9147 1 109.50000 418.400000
1438 15312 9148 1 109.50000 418.400000
9146 15312 9147 1 109.50000 418.400000
9146 15312 9148 1 109.50000 418.400000
9147 15312 9148 1 109.50000 418.400000
6879 15313 7011 1 109.50000 418.400000
6879 15313 7744 1 109.50000 418.400000
6879 15313 10547 1 109.50000 418.400000
7011 15313 7744 1 109.50000 418.400000
7011 15313 10547 1 109.50000 418.400000
7744 15313 10547 1 109.50000 418.400000
737 15314 6181 1 109.50000 418.400000
737 15314 6248 1 109.50000 418.400000
737 15314 7720 1 109.50000 418.400000
6181 15314 6248 1 109.50000 418.400000
6181 15314 7720 1 109.50000 418.400000
6248 15314 7720 1 109.50000 418.400000
631 15315 1244 1 109.50000 418.400000
631 15315 8077 1 109.50000 418.400000
631 15315 8982 1 109.50000 418.400000
1244 15315 8077 1 109.50000 418.400000
1244 15315 8982 1 109.50000 418.400000
8077 15315 8982 1 109.50000 418.400000
332 15316 1050 1 109.50000 418.400000
332 15316 8787 1 109.50000 418.400000
332 15316 10803 1 109.50000 418.400000
1050 15316 8787 1 109.50000 418.400000
1050 15316 10803 1 109.50000 418.400000
8787 15316 10803 1 109.50000 418.400000
5343 15317 6942 1 109.50000 418.400000
5343 15317 7676 1 109.50000 418.400000
5343 15317 10805 1 109.50000 418.400000
6942 15317 7676 1 109.50000 418.400000
6942 15317 10805 1 109.50000 418.400000
7676 15317 10805 1 109.50000 418.400000
5565 15318 6070 1 109.50000 418.400000
5565 15318 6548 1 109.50000 418.400000
5565 15318 8222 1 109.50000 418.400000
6070 15318 6548 1 109.50000 418.400000
6070 15318 8222 1 109.50000 418.400000
6548 15318 8222 1 109.50000 418.400000
1694 15319 3638 1 109.50000 418.400000
1694 15319 9215 1 109.50000 418.400000
1694 15319 10806 1 109.50000 418.400000
3638 15319 9215 1 109.50000 418.400000
3638 15319 10806 1 109.50000 418.400000
9215 15319 10806 1 109.50000 418.400000
4129 15320 4944 1 109.50000 418.400000
4129 15320 8746 1 109.50000 418.400000
4129 15320 10605 1 109.50000 418.400000
4944 15320 8746 1 109.50000 418.400000
4944 15320 10605 1 109.50000 418.400000
8746 15320 10605 1 109.50000 418.400000
2227 15321 2916 1 109.50000 418.400000
2227 15321 9156 1 109.50000 418.400000
2227 15321 9326 1 109.50000 418.400000
2916 15321 9156 1 109.50000 418.400000
2916 15321 9326 1 109.50000 418.400000
9156 15321 9326 1 109.50000 418.400000
2537 15322 5170 1 109.50000 418.400000
2537 15322 10625 1 109.50000 418.400000
2537 15322 10807 1 109.50000 418.400000
5170 15322 10625 1 109.50000 418.400000
5170 15322 10807 1 109.50000 418.400000
10625 15322 10807 1 109.50000 418.400000
8174 15323 9670 1 109.50000 418.400000
8174 15323 10400 1 109.50000 418.400000
8174 15323 10808 1 109.50000 418.400000
9670 15323 10400 1 109.50000 418.400000
9670 15323 10808 1 109.50000 418.400000
10400 15323 10808 1 109.50000 418.400000
8107 15324 10521 1 109.50000 418.400000
8107 15324 10809 1 109.50000 418.400000
8107 15324 10810 1 109.50000 418.400000
10521 15324 10809 1 109.50000 418.400000
10521 15324 10810 1 109.50000 418.400000
10809 15324 10810 1 109.50000 418.400000
1894 15325 2390 1 109.50000 418.400000
1894 15325 6700 1 109.50000 418.400000
1894 15325 8457 1 109.50000 418.400000
2390 15325 6700 1 109.50000 418.400000
2390 15325 8457 1 109.50000 418.400000
6700 15325 8457 1 109.50000 418.400000
3622 15326 3662 1 109.50000 418.400000
3622 15326 6627 1 109.50000 418.400000
3622 15326 9615 1 109.50000 418.400000
3662 15326 6627 1 109.50000 418.400000
3662 15326 9615 1 109.50000 418.400000
6627 15326 9615 1 109.50000 418.400000
988 15327 6614 1 109.50000 418.400000
988 15327 9531 1 109.50000 418.400000
988 15327 10811 1 109.50000 418.400000
6614 15327 9531 1 109.50000 418.400000
6614 15327 10811 1 109.50000 418.400000
9531 15327 10811 1 109.50000 418.400000
6042 15328 6356 1 109.50000 418.400000
6042 15328 9834 1 109.50000 418.400000
6042 15328 10189 1 109.50000 418.400000
6356 15328 9834 1 109.50000 418.400000
6356 15328 10189 1 109.50000 418.400000
9834 15328 10189 1 109.50000 418.400000
5379 15329 9715 1 109.50000 418.400000
5379 15329 10448 1 109.50000 418.400000
5379 15329 10812 1 109.50000 418.400000
9715 15329 10448 1 109.50000 418.400000
9715 15329 10812 1 109.50000 418.400000
10448 15329 10812 1 109.50000 418.400000
3581 15330 5810 1 109.50000 418.400000
3581 15330 9248 1 109.50000 418.400000
3581 15330 9416 1 109.50000 418.400000
5810 15330 9248 1 109.50000 418.400000
5810 15330 9416 1 109.50000 418.400000
9248 15330 9416 1 109.50000 418.400000
8138 15331 8514 1 109.50000 418.400000
8138 15331 9860 1 109.50000 418.400000
8138 15331 10324 1 109.50000 418.400000
8514 15331 9860 1 109.50000 418.400000
8514 15331 10324 1 109.50000 418.400000
9860 15331 10324 1 109.50000 418.400000
6826 15332 7396 1 109.50000 418.400000
6826 15332 10105 1 109.50000 418.400000
6826 15332 10813 1 109.50000 418.400000
7396 15332 10105 1 109.50000 418.400000
7396 15332 10813 1 109.50000 418.400000
10105 15332 10813 1 109.50000 418.400000
3689 15333 6670 1 109.50000 418.400000
3689 15333 9731 1 109.50000 418.400000
3689 15333 10200 1 109.50000 418.400000
6670 15333 9731 1 109.50000 418.400000
6670 15333 10200 1 109.50000 418.400000
9731 15333 10200 1 109.50000 418.400000
7387 15334 8750 1 109.50000 418.400000
7387 15334 10541 1 109.50000 418.400000
7387 15334 10725 1 109.50000 418.400000
8750 15334 10541 1 109.50000 418.400000
8750 15334 10725 1 109.50000 418.400000
10541 15334 10725 1 109.50000 418.400000
7 15335 7221 1 109.50000 418.400000
7 15335 10404 1 109.50000 418.400000
7 15335 10667 1 109.50000 418.400000
7221 15335 10404 1 109.50000 418.400000
7221 15335 10667 1 109.50000 418.400000
10404 15335 10667 1 109.50000 418.400000
802 15336 4611 1 109.50000 418.400000
802 15336 8038 1 109.50000 418.400000
802 15336 10472 1 109.50000 418.400000
4611 15336 8038 1 109.50000 418.400000
4611 15336 10472 1 109.50000 418.400000
8038 15336 10472 1 109.50000 418.400000
1122 15337 6507 1 109.50000 418.400000
1122 15337 10259 1 109.50000 418.400000
1122 15337 10815 1 109.50000 418.400000
6507 15337 10259 1 109.50000 418.400000
6507 15337 10815 1 109.50000 418.400000
10259 15337 10815 1 109.50000 418.400000
2016 15338 4308 1 109.50000 418.400000
2016 15338 9290 1 109.50000 418.400000
2016 15338 10816 1 109.50000 418.400000
4308 15338 9290 1 109.50000 418.400000
4308 15338 10816 1 109.50000 418.400000
9290 15338 10816 1 109.50000 418.400000
1349 15339 3639 1 109.50000 418.400000
1349 15339 5176 1 109.50000 418.400000
1349 15339 9973 1 109.50000 418.400000
3639 15339 5176 1 109.50000 418.400000
3639 15339 9973 1 109.50000 418.400000
5176 15339 9973 1 109.50000 418.400000
6223 15340 8596 1 109.50000 418.400000
6223 15340 10817 1 109.50000 418.400000
6223 15340 10818 1 109.50000 418.400000
8596 15340 10817 1 109.50000 418.400000
8596 15340 10818 1 109.50000 418.400000
10817 15340 10818 1 109.50000 418.400000
1895 15341 9507 1 109.50000 418.400000
1895 15341 9984 1 109.50000 418.400000
1895 15341 10161 1 109.50000 418.400000
9507 15341 9984 1 109.50000 418.400000
9507 15341 10161 1 109.50000 418.400000
9984 15341 10161 1 109.50000 418.400000
2754 15342 5618 1 109.50000 418.400000
2754 15342 8708 1 109.50000 418.400000
2754 15342 10819 1 109.50000 418.400000
5618 15342 8708 1 109.50000 418.400000
5618 15342 10819 1 109.50000 418.400000
8708 15342 10819 1 109.50000 418.400000
6745 15343 9154 1 109.50000 418.400000
6745 15343 9391 1 109.50000 418.400000
6745 15343 10100 1 109.50000 418.400000
9154 15343 9391 1 109.50000 418.400000
9154 15343 10100 1 109.50000 418.400000
9391 15343 10100 1 109.50000 418.400000
540 15344 835 1 109.50000 418.400000
540 15344 10231 1 109.50000 418.400000
540 15344 10820 1 109.50000 418.400000
835 15344 10231 1 109.50000 418.400000
835 15344 10820 1 109.50000 418.400000
10231 15344 10820 1 109.50000 418.400000
211 15345 2609 1 109.50000 418.400000
211 15345 7355 1 109.50000 418.400000
211 15345 9361 1 109.50000 418.400000
2609 15345 7355 1 109.50000 418.400000
2609 15345 9361 1 109.50000 418.400000
7355 15345 9361 1 109.50000 418.400000
1612 15346 1838 1 109.50000 418.400000
1612 15346 4372 1 109.50000 418.400000
1612 15346 6162 1 109.50000 418.400000
1838 15346 4372 1 109.50000 418.400000
1838 15346 6162 1 109.50000 418.400000
4372 15346 6162 1 109.50000 418.400000
532 15347 5600 1 109.50000 418.400000
532 15347 6344 1 109.50000 418.400000
532 15347 6360 1 109.50000 418.400000
5600 15347 6344 1 109.50000 418.400000
5600 15347 6360 1 109.50000 418.400000
6344 15347 6360 1 109.50000 418.400000
9306 15348 9594 1 109.50000 418.400000
9306 15348 10823 1 109.50000 418.400000
9306 15348 10824 1 109.50000 418.400000
9594 15348 10823 1 109.50000 418.400000
9594 15348 10824 1 109.50000 418.400000
10823 15348 10824 1 109.50000 418.400000
6272 15349 9914 1 109.50000 418.400000
6272 15349 10479 1 109.50000 418.400000
6272 15349 10825 1 109.50000 418.400000
9914 15349 10479 1 109.50000 418.400000
9914 15349 10825 1 109.50000 418.400000
10479 15349 10825 1 109.50000 418.400000
2635 15350 3456 1 109.50000 418.400000
2635 15350 9961 1 109.50000 418.400000
2635 15350 10826 1 109.50000 418.400000
3456 15350 9961 1 109.50000 418.400000
3456 15350 10826 1 109.50000 418.400000
9961 15350 10826 1 109.50000 418.400000
3276 15351 6908 1 109.50000 418.400000
3276 15351 8179 1 109.50000 418.400000
3276 15351 10546 1 109.50000 418.400000
6908 15351 8179 1 109.50000 418.400000
6908 15351 10546 1 109.50000 418.400000
8179 15351 10546 1 109.50000 418.400000
4781 15352 4783 1 109.50000 418.400000
4781 15352 9045 1 109.50000 418.400000
4781 15352 10720 1 109.50000 418.400000
4783 15352 9045 1 109.50000 418.400000
4783 15352 10720 1 109.50000 418.400000
9045 15352 10720 1 109.50000 418.400000
6605 15353 7983 1 109.50000 418.400000
6605 15353 9637 1 109.50000 418.400000
6605 15353 10499 1 109.50000 418.400000
7983 15353 9637 1 109.50000 418.400000
7983 15353 10499 1 109.50000 418.400000
9637 15353 10499 1 109.50000 418.400000
1411 15354 4673 1 109.50000 418.400000
1411 15354 6860 1 109.50000 418.400000
1411 15354 8689 1 109.50000 418.400000
4673 15354 6860 1 109.50000 418.400000
4673 15354 8689 1 109.50000 418.400000
6860 15354 8689 1 109.50000 418.400000
5252 15355 6953 1 109.50000 418.400000
5252 15355 7774 1 109.50000 418.400000
5252 15355 7776 1 109.50000 418.400000
6953 15355 7774 1 109.50000 418.400000
6953 15355 7776 1 109.50000 418.400000
7774 15355 7776 1 109.50000 418.400000
5153 15356 9356 1 109.50000 418.400000
5153 15356 10268 1 109.50000 418.400000
5153 15356 10588 1 109.50000 418.400000
9356 15356 10268 1 109.50000 418.400000
9356 15356 10588 1 109.50000 418.400000
10268 15356 10588 1 109.50000 418.400000
1023 15357 4198 1 109.50000 418.400000
1023 15357 5365 1 109.50000 418.400000
1023 15357 6261 1 109.50000 418.400000
4198 15357 5365 1 109.50000 418.400000
4198 15357 6261 1 109.50000 418.400000
5365 15357 6261 1 109.50000 418.400000
874 15358 7003 1 109.50000 418.400000
874 15358 7121 1 109.50000 418.400000
874 15358 7760 1 109.50000 418.400000
7003 15358 7121 1 109.50000 418.400000
7003 15358 7760 1 109.50000 418.400000
7121 15358 7760 1 109.50000 418.400000
4450 15359 9493 1 109.50000 418.400000
4450 15359 9517 1 109.50000 418.400000
4450 15359 10829 1 109.50000 418.400000
9493 15359 9517 1 109.50000 418.400000
9493 15359 10829 1 109.50000 418.400000
9517 15359 10829 1 109.50000 418.400000
2516 15360 2744 1 109.50000 418.400000
2516 15360 9283 1 109.50000 418.400000
2516 15360 9795 1 109.50000 418.400000
2744 15360 9283 1 109.50000 418.400000
2744 15360 9795 1 109.50000 418.400000
9283 15360 9795 1 109.50000 418.400000
2949 15361 5368 1 109.50000 418.400000
2949 15361 9710 1 109.50000 418.400000
2949 15361 9728 1 109.50000 418.400000
5368 15361 9710 1 109.50000 418.400000
5368 15361 9728 1 109.50000 418.400000
9710 15361 9728 1 109.50000 418.400000
4573 15362 5767 1 109.50000 418.400000
4573 15362 7701 1 109.50000 418.400000
4573 15362 10830 1 109.50000 418.400000
5767 15362 7701 1 109.50000 418.400000
5767 15362 10830 1 109.50000 418.400000
7701 15362 10830 1 109.50000 418.400000
2992 15363 2993 1 109.50000 418.400000
2992 15363 2994 1 109.50000 418.400000
2992 15363 2995 1 109.50000 418.400000
2993 15363 2994 1 109.50000 418.400000
2993 15363 2995 1 109.50000 418.400000
2994 15363 2995 1 109.50000 418.400000
1060 15364 1062 1 109.50000 418.400000
1060 15364 9158 1 109.50000 418.400000
1060 15364 9327 1 109.50000 418.400000
1062 15364 9158 1 109.50000 418.400000
1062 15364 9327 1 109.50000 418.400000
9158 15364 9327 1 109.50000 418.400000
9258 15365 9632 1 109.50000 418.400000
9258 15365 9633 1 109.50000 418.400000
9258 15365 10831 1 109.50000 418.400000
9632 15365 9633 1 109.50000 418.400000
9632 15365 10831 1 109.50000 418.400000
9633 15365 10831 1 109.50000 418.400000
613 15366 9277 1 109.50000 418.400000
613 15366 10785 1 109.50000 418.400000
613 15366 10832 1 109.50000 418.400000
9277 15366 10785 1 109.50000 418.400000
9277 15366 10832 1 109.50000 418.400000
10785 15366 10832 1 109.50000 418.400000
3624 15367 3625 1 109.50000 418.400000
3624 15367 5320 1 109.50000 418.400000
3624 15367 7063 1 109.50000 418.400000
3625 15367 5320 1 109.50000 418.400000
3625 15367 7063 1 109.50000 418.400000
5320 15367 7063 1 109.50000 418.400000
1713 15368 9018 1 109.50000 418.400000
1713 15368 10491 1 109.50000 418.400000
1713 15368 10833 1 109.50000 418.400000
9018 15368 10491 1 109.50000 418.400000
9018 15368 10833 1 109.50000 418.400000
10491 15368 10833 1 109.50000 418.400000
2779 15369 6399 1 109.50000 418.400000
2779 15369 9815 1 109.50000 418.400000
2779 15369 10392 1 109.50000 418.400000
6399 15369 9815 1 109.50000 418.400000
6399 15369 10392 1 109.50000 418.400000
9815 15369 10392 1 109.50000 418.400000
6455 15370 8047 1 109.50000 418.400000
6455 15370 10834 1 109.50000 418.400000
6455 15370 10835 1 109.50000 418.400000
8047 15370 10834 1 109.50000 418.400000
8047 15370 10835 1 109.50000 418.400000
10834 15370 10835 1 109.50000 418.400000
2702 15371 6941 1 109.50000 418.400000
2702 15371 8650 1 109.50000 418.400000
2702 15371 10787 1 109.50000 418.400000
6941 15371 8650 1 109.50000 418.400000
6941 15371 10787 1 109.50000 418.400000
8650 15371 10787 1 109.50000 418.400000
2688 15372 4833 1 109.50000 418.400000
2688 15372 10836 1 109.50000 418.400000
2688 15372 10837 1 109.50000 418.400000
4833 15372 10836 1 109.50000 418.400000
4833 15372 10837 1 109.50000 418.400000
10836 15372 10837 1 109.50000 418.400000
7289 15373 7291 1 109.50000 418.400000
7289 15373 9510 1 109.50000 418.400000
7289 15373 10838 1 109.50000 418.400000
7291 15373 9510 1 109.50000 418.400000
7291 15373 10838 1 109.50000 418.400000
9510 15373 10838 1 109.50000 418.400000
2649 15374 8048 1 109.50000 418.400000
2649 15374 8580 1 109.50000 418.400000
2649 15374 9272 1 109.50000 418.400000
8048 15374 8580 1 109.50000 418.400000
8048 15374 9272 1 109.50000 418.400000
8580 15374 9272 1 109.50000 418.400000
4612 15375 7935 1 109.50000 418.400000
4612 15375 10842 1 109.50000 418.400000
4612 15375 10843 1 109.50000 418.400000
7935 15375 10842 1 109.50000 418.400000
7935 15375 10843 1 109.50000 418.400000
10842 15375 10843 1 109.50000 418.400000
4527 15376 8423 1 109.50000 418.400000
4527 15376 10339 1 109.50000 418.400000
4527 15376 10340 1 109.50000 418.400000
8423 15376 10339 1 109.50000 418.400000
8423 15376 10340 1 109.50000 418.400000
10339 15376 10340 1 109.50000 418.400000
5082 15377 6147 1 109.50000 418.400000
5082 15377 9168 1 109.50000 418.400000
5082 15377 10701 1 109.50000 418.400000
6147 15377 9168 1 109.50000 418.400000
6147 15377 10701 1 109.50000 418.400000
9168 15377 10701 1 109.50000 418.400000
2548 15378 8998 1 109.50000 418.400000
2548 15378 9337 1 109.50000 418.400000
2548 15378 10844 1 109.50000 418.400000
8998 15378 9337 1 109.50000 418.400000
8998 15378 10844 1 109.50000 418.400000
9337 15378 10844 1 109.50000 418.400000
1573 15379 9266 1 109.50000 418.400000
1573 15379 10845 1 109.50000 418.400000
1573 15379 10846 1 109.50000 418.400000
9266 15379 10845 1 109.50000 418.400000
9266 15379 10846 1 109.50000 418.400000
10845 15379 10846 1 109.50000 418.400000
1942 15380 6428 1 109.50000 418.400000
1942 15380 9150 1 109.50000 418.400000
1942 15380 10847 1 109.50000 418.400000
6428 15380 9150 1 109.50000 418.400000
6428 15380 10847 1 109.50000 418.400000
9150 15380 10847 1 109.50000 418.400000
1973 15381 1974 1 109.50000 418.400000
1973 15381 10405 1 109.50000 418.400000
1973 15381 10773 1 109.50000 418.400000
1974 15381 10405 1 109.50000 418.400000
1974 15381 10773 1 109.50000 418.400000
10405 15381 10773 1 109.50000 418.400000
6475 15382 6744 1 109.50000 418.400000
6475 15382 10710 1 109.50000 418.400000
6475 15382 10848 1 109.50000 418.400000
6744 15382 10710 1 109.50000 418.400000
6744 15382 10848 1 109.50000 418.400000
10710 15382 10848 1 109.50000 418.400000
3254 15383 5660 1 109.50000 418.400000
3254 15383 6674 1 109.50000 418.400000
3254 15383 10731 1 109.50000 418.400000
5660 15383 6674 1 109.50000 418.400000
5660 15383 10731 1 109.50000 418.400000
6674 15383 10731 1 109.50000 418.400000
434 15384 8884 1 109.50000 418.400000
434 15384 9954 1 109.50000 418.400000
434 15384 10564 1 109.50000 418.400000
8884 15384 9954 1 109.50000 418.400000
8884 15384 10564 1 109.50000 418.400000
9954 15384 10564 1 109.50000 418.400000
76 15385 2970 1 109.50000 418.400000
76 15385 5209 1 109.50000 418.400000
76 15385 10849 1 109.50000 418.400000
2970 15385 5209 1 109.50000 418.400000
2970 15385 10849 1 109.50000 418.400000
5209 15385 10849 1 109.50000 418.400000
7024 15386 7076 1 109.50000 418.400000
7024 15386 9866 1 109.50000 418.400000
7024 15386 10267 1 109.50000 418.400000
7076 15386 9866 1 109.50000 418.400000
7076 15386 10267 1 109.50000 418.400000
9866 15386 10267 1 109.50000 418.400000
632 15387 3895 1 109.50000 418.400000
632 15387 10192 1 109.50000 418.400000
632 15387 10839 1 109.50000 418.400000
3895 15387 10192 1 109.50000 418.400000
3895 15387 10839 1 109.50000 418.400000
10192 15387 10839 1 109.50000 418.400000
89 15388 929 1 109.50000 418.400000
89 15388 4657 1 109.50000 418.400000
89 15388 10708 1 109.50000 418.400000
929 15388 4657 1 109.50000 418.400000
929 15388 10708 1 109.50000 418.400000
4657 15388 10708 1 109.50000 418.400000
3050 15389 5924 1 109.50000 418.400000
3050 15389 7157 1 109.50000 418.400000
3050 15389 9365 1 109.50000 418.400000
5924 15389 7157 1 109.50000 418.400000
5924 15389 9365 1 109.50000 418.400000
7157 15389 9365 1 109.50000 418.400000
764 15390 2808 1 109.50000 418.400000
764 15390 10850 1 109.50000 418.400000
764 15390 10851 1 109.50000 418.400000
2808 15390 10850 1 109.50000 418.400000
2808 15390 10851 1 109.50000 418.400000
10850 15390 10851 1 109.50000 418.400000
444 15391 1081 1 109.50000 418.400000
444 15391 6772 1 109.50000 418.400000
444 15391 10470 1 109.50000 418.400000
1081 15391 6772 1 109.50000 418.400000
1081 15391 10470 1 109.50000 418.400000
6772 15391 10470 1 109.50000 418.400000
3287 15392 6885 1 109.50000 418.400000
3287 15392 9951 1 109.50000 418.400000
3287 15392 10178 1 109.50000 418.400000
6885 15392 9951 1 109.50000 418.400000
6885 15392 10178 1 109.50000 418.400000
9951 15392 10178 1 109.50000 418.400000
1754 15393 3370 1 109.50000 418.400000
1754 15393 4968 1 109.50000 418.400000
1754 15393 9407 1 109.50000 418.400000
3370 15393 4968 1 109.50000 418.400000
3370 15393 9407 1 109.50000 418.400000
4968 15393 9407 1 109.50000 418.400000
55 15394 8096 1 109.50000 418.400000
55 15394 10658 1 109.50000 418.400000
55 15394 10852 1 109.50000 418.400000
8096 15394 10658 1 109.50000 418.400000
8096 15394 10852 1 109.50000 418.400000
10658 15394 10852 1 109.50000 418.400000
7997 15395 8736 1 109.50000 418.400000
7997 15395 10066 1 109.50000 418.400000
7997 15395 10853 1 109.50000 418.400000
8736 15395 10066 1 109.50000 418.400000
8736 15395 10853 1 109.50000 418.400000
10066 15395 10853 1 109.50000 418.400000
9560 15396 9685 1 109.50000 418.400000
9560 15396 10854 1 109.50000 418.400000
9560 15396 10901 1 109.50000 418.400000
9685 15396 10854 1 109.50000 418.400000
9685 15396 10901 1 109.50000 418.400000
10854 15396 10901 1 109.50000 418.400000
4159 15397 5857 1 109.50000 418.400000
4159 15397 6855 1 109.50000 418.400000
4159 15397 10855 1 109.50000 418.400000
5857 15397 6855 1 109.50000 418.400000
5857 15397 10855 1 109.50000 418.400000
6855 15397 10855 1 109.50000 418.400000
4066 15398 4067 1 109.50000 418.400000
4066 15398 8150 1 109.50000 418.400000
4066 15398 8440 1 109.50000 418.400000
4067 15398 8150 1 109.50000 418.400000
4067 15398 8440 1 109.50000 418.400000
8150 15398 8440 1 109.50000 418.400000
4379 15399 8713 1 109.50000 418.400000
4379 15399 10856 1 109.50000 418.400000
4379 15399 10857 1 109.50000 418.400000
8713 15399 10856 1 109.50000 418.400000
8713 15399 10857 1 109.50000 418.400000
10856 15399 10857 1 109.50000 418.400000
665 15400 666 1 109.50000 418.400000
665 15400 5447 1 109.50000 418.400000
665 15400 10859 1 109.50000 418.400000
666 15400 5447 1 109.50000 418.400000
666 15400 10859 1 109.50000 418.400000
5447 15400 10859 1 109.50000 418.400000
10300 15401 10302 1 109.50000 418.400000
10300 15401 10860 1 109.50000 418.400000
10300 15401 10861 1 109.50000 418.400000
10302 15401 10860 1 109.50000 418.400000
10302 15401 10861 1 109.50000 418.400000
10860 15401 10861 1 109.50000 418.400000
319 15402 839 1 109.50000 418.400000
319 15402 7000 1 109.50000 418.400000
319 15402 10145 1 109.50000 418.400000
839 15402 7000 1 109.50000 418.400000
839 15402 10145 1 109.50000 418.400000
7000 15402 10145 1 109.50000 418.400000
6391 15403 7276 1 109.50000 418.400000
6391 15403 9687 1 109.50000 418.400000
6391 15403 10859 1 109.50000 418.400000
7276 15403 9687 1 109.50000 418.400000
7276 15403 10859 1 109.50000 418.400000
9687 15403 10859 1 109.50000 418.400000
2689 15404 7068 1 109.50000 418.400000
2689 15404 8826 1 109.50000 418.400000
2689 15404 10862 1 109.50000 418.400000
7068 15404 8826 1 109.50000 418.400000
7068 15404 10862 1 109.50000 418.400000
8826 15404 10862 1 109.50000 418.400000
2682 15405 2683 1 109.50000 418.400000
2682 15405 3534 1 109.50000 418.400000
2682 15405 4979 1 109.50000 418.400000
2683 15405 3534 1 109.50000 418.400000
2683 15405 4979 1 109.50000 418.400000
3534 15405 4979 1 109.50000 418.400000
1760 15406 8105 1 109.50000 418.400000
1760 15406 9004 1 109.50000 418.400000
1760 15406 11195 1 109.50000 418.400000
8105 15406 9004 1 109.50000 418.400000
8105 15406 11195 1 109.50000 418.400000
9004 15406 11195 1 109.50000 418.400000
554 15407 2181 1 109.50000 418.400000
554 15407 6780 1 109.50000 418.400000
554 15407 10863 1 109.50000 418.400000
2181 15407 6780 1 109.50000 418.400000
2181 15407 10863 1 109.50000 418.400000
6780 15407 10863 1 109.50000 418.400000
3 15408 2221 1 109.50000 418.400000
3 15408 2491 1 109.50000 418.400000
3 15408 5872 1 109.50000 418.400000
2221 15408 2491 1 109.50000 418.400000
2221 15408 5872 1 109.50000 418.400000
2491 15408 5872 1 109.50000 418.400000
1389 15409 2641 1 109.50000 418.400000
1389 15409 7408 1 109.50000 418.400000
1389 15409 7410 1 109.50000 418.400000
2641 15409 7408 1 109.50000 418.400000
2641 15409 7410 1 109.50000 418.400000
7408 15409 7410 1 109.50000 418.400000
8449 15410 8450 1 109.50000 418.400000
8449 15410 9655 1 109.50000 418.400000
8449 15410 9656 1 109.50000 418.400000
8450 15410 9655 1 109.50000 418.400000
8450 15410 9656 1 109.50000 418.400000
9655 15410 9656 1 109.50000 418.400000
6684 15411 8316 1 109.50000 418.400000
6684 15411 10209 1 109.50000 418.400000
6684 15411 10865 1 109.50000 418.400000
8316 15411 10209 1 109.50000 418.400000
8316 15411 10865 1 109.50000 418.400000
10209 15411 10865 1 109.50000 418.400000
5516 15412 6417 1 109.50000 418.400000
5516 15412 6418 1 109.50000 418.400000
5516 15412 6795 1 109.50000 418.400000
6417 15412 6418 1 109.50000 418.400000
6417 15412 6795 1 109.50000 418.400000
6418 15412 6795 1 109.50000 418.400000
6045 15413 6856 1 109.50000 418.400000
6045 15413 7588 1 109.50000 418.400000
6045 15413 8284 1 109.50000 418.400000
6856 15413 7588 1 109.50000 418.400000
6856 15413 8284 1 109.50000 418.400000
7588 15413 8284 1 109.50000 418.400000
9876 15414 9977 1 109.50000 418.400000
9876 15414 10349 1 109.50000 418.400000
9876 15414 10870 1 109.50000 418.400000
9977 15414 10349 1 109.50000 418.400000
9977 15414 10870 1 109.50000 418.400000
10349 15414 10870 1 109.50000 418.400000
8597 15415 8932 1 109.50000 418.400000
8597 15415 9397 1 109.50000 418.400000
8597 15415 9472 1 109.50000 418.400000
8932 15415 9397 1 109.50000 418.400000
8932 15415 9472 1 109.50000 418.400000
9397 15415 9472 1 109.50000 418.400000
7461 15416 7814 1 109.50000 418.400000
7461 15416 10212 1 109.50000 418.400000
7461 15416 10753 1 109.50000 418.400000
7814 15416 10212 1 109.50000 418.400000
7814 15416 10753 1 109.50000 418.400000
10212 15416 10753 1 109.50000 418.400000
2751 15417 6833 1 109.50000 418.400000
2751 15417 10381 1 109.50000 418.400000
2751 15417 10539 1 109.50000 418.400000
6833 15417 10381 1 109.50000 418.400000
6833 15417 10539 1 109.50000 418.400000
10381 15417 10539 1 109.50000 418.400000
2636 15418 4620 1 109.50000 418.400000
2636 15418 5686 1 109.50000 418.400000
2636 15418 10771 1 109.50000 418.400000
4620 15418 5686 1 109.50000 418.400000
4620 15418 10771 1 109.50000 418.400000
5686 15418 10771 1 109.50000 418.400000
2507 15419 4879 1 109.50000 418.400000
2507 15419 9747 1 109.50000 418.400000
2507 15419 10768 1 109.50000 418.400000
4879 15419 9747 1 109.50000 418.400000
4879 15419 10768 1 109.50000 418.400000
9747 15419 10768 1 109.50000 418.400000
7644 15420 7645 1 109.50000 418.400000
7644 15420 10534 1 109.50000 418.400000
7644 15420 10871 1 109.50000 418.400000
7645 15420 10534 1 109.50000 418.400000
7645 15420 10871 1 109.50000 418.400000
10534 15420 10871 1 109.50000 418.400000
10437 15421 10873 1 109.50000 418.400000
10437 15421 10874 1 109.50000 418.400000
10437 15421 11223 1 109.50000 418.400000
10873 15421 10874 1 109.50000 418.400000
10873 15421 11223 1 109.50000 418.400000
10874 15421 11223 1 109.50000 418.400000
8723 15422 9467 1 109.50000 418.400000
8723 15422 10774 1 109.50000 418.400000
8723 15422 10875 1 109.50000 418.400000
9467 15422 10774 1 109.50000 418.400000
9467 15422 10875 1 109.50000 418.400000
10774 15422 10875 1 109.50000 418.400000
5409 15423 6266 1 109.50000 418.400000
5409 15423 10241 1 109.50000 418.400000
5409 15423 10876 1 109.50000 418.400000
6266 15423 10241 1 109.50000 418.400000
6266 15423 10876 1 109.50000 418.400000
10241 15423 10876 1 109.50000 418.400000
3211 15424 10459 1 109.50000 418.400000
3211 15424 10698 1 109.50000 418.400000
3211 15424 10749 1 109.50000 418.400000
10459 15424 10698 1 109.50000 418.400000
10459 15424 10749 1 109.50000 418.400000
10698 15424 10749 1 109.50000 418.400000
3099 15425 7458 1 109.50000 418.400000
3099 15425 8901 1 109.50000 418.400000
3099 15425 9649 1 109.50000 418.400000
7458 15425 8901 1 109.50000 418.400000
7458 15425 9649 1 109.50000 418.400000
8901 15425 9649 1 109.50000 418.400000
6632 15426 8328 1 109.50000 418.400000
6632 15426 8761 1 109.50000 418.400000
6632 15426 10828 1 109.50000 418.400000
8328 15426 8761 1 109.50000 418.400000
8328 15426 10828 1 109.50000 418.400000
8761 15426 10828 1 109.50000 418.400000
10433 15427 10815 1 109.50000 418.400000
10433 15427 11161 1 109.50000 418.400000
10433 15427 11189 1 109.50000 418.400000
10815 15427 11161 1 109.50000 418.400000
10815 15427 11189 1 109.50000 418.400000
11161 15427 11189 1 109.50000 418.400000
688 15428 6412 1 109.50000 418.400000
688 15428 6413 1 109.50000 418.400000
688 15428 6414 1 109.50000 418.400000
6412 15428 6413 1 109.50000 418.400000
6412 15428 6414 1 109.50000 418.400000
6413 15428 6414 1 109.50000 418.400000
112 15429 2871 1 109.50000 418.400000
112 15429 10878 1 109.50000 418.400000
112 15429 10879 1 109.50000 418.400000
2871 15429 10878 1 109.50000 418.400000
2871 15429 10879 1 109.50000 418.400000
10878 15429 10879 1 109.50000 418.400000
3158 15430 7183 1 109.50000 418.400000
3158 15430 10184 1 109.50000 418.400000
3158 15430 10880 1 109.50000 418.400000
7183 15430 10184 1 109.50000 418.400000
7183 15430 10880 1 109.50000 418.400000
10184 15430 10880 1 109.50000 418.400000
1498 15431 4158 1 109.50000 418.400000
1498 15431 10060 1 109.50000 418.400000
1498 15431 10881 1 109.50000 418.400000
4158 15431 10060 1 109.50000 418.400000
4158 15431 10881 1 109.50000 418.400000
10060 15431 10881 1 109.50000 418.400000
6411 15432 8063 1 109.50000 418.400000
6411 15432 8344 1 109.50000 418.400000
6411 15432 8830 1 109.50000 418.400000
8063 15432 8344 1 109.50000 418.400000
8063 15432 8830 1 109.50000 418.400000
8344 15432 8830 1 109.50000 418.400000
536 15433 3497 1 109.50000 418.400000
536 15433 7195 1 109.50000 418.400000
536 15433 8572 1 109.50000 418.400000
3497 15433 7195 1 109.50000 418.400000
3497 15433 8572 1 109.50000 418.400000
7195 15433 8572 1 109.50000 418.400000
2196 15434 2308 1 109.50000 418.400000
2196 15434 4635 1 109.50000 418.400000
2196 15434 10882 1 109.50000 418.400000
2308 15434 4635 1 109.50000 418.400000
2308 15434 10882 1 109.50000 418.400000
4635 15434 10882 1 109.50000 418.400000
8679 15435 8680 1 109.50000 418.400000
8679 15435 10883 1 109.50000 418.400000
8679 15435 10885 1 109.50000 418.400000
8680 15435 10883 1 109.50000 418.400000
8680 15435 10885 1 109.50000 418.400000
10883 15435 10885 1 109.50000 418.400000
240 15436 6907 1 109.50000 418.400000
240 15436 10718 1 109.50000 418.400000
240 15436 10886 1 109.50000 418.400000
6907 15436 10718 1 109.50000 418.400000
6907 15436 10886 1 109.50000 418.400000
10718 15436 10886 1 109.50000 418.400000
4333 15437 6286 1 109.50000 418.400000
4333 15437 7937 1 109.50000 418.400000
4333 15437 10575 1 109.50000 418.400000
6286 15437 7937 1 109.50000 418.400000
6286 15437 10575 1 109.50000 418.400000
7937 15437 10575 1 109.50000 418.400000
1674 15438 6466 1 109.50000 418.400000
1674 15438 8379 1 109.50000 418.400000
1674 15438 10390 1 109.50000 418.400000
6466 15438 8379 1 109.50000 418.400000
6466 15438 10390 1 109.50000 418.400000
8379 15438 10390 1 109.50000 418.400000
2407 15439 6119 1 109.50000 418.400000
2407 15439 9161 1 109.50000 418.400000
2407 15439 10464 1 109.50000 418.400000
6119 15439 9161 1 109.50000 418.400000
6119 15439 10464 1 109.50000 418.400000
9161 15439 10464 1 109.50000 418.400000
681 15440 1046 1 109.50000 418.400000
681 15440 7032 1 109.50000 418.400000
681 15440 9532 1 109.50000 418.400000
1046 15440 7032 1 109.50000 418.400000
1046 15440 9532 1 109.50000 418.400000
7032 15440 9532 1 109.50000 418.400000
2152 15441 5190 1 109.50000 418.400000
2152 15441 8272 1 109.50000 418.400000
2152 15441 10882 1 109.50000 418.400000
5190 15441 8272 1 109.50000 418.400000
5190 15441 10882 1 109.50000 418.400000
8272 15441 10882 1 109.50000 418.400000
8032 15442 9905 1 109.50000 418.400000
8032 15442 10644 1 109.50000 418.400000
8032 15442 10888 1 109.50000 418.400000
9905 15442 10644 1 109.50000 418.400000
9905 15442 10888 1 109.50000 418.400000
10644 15442 10888 1 109.50000 418.400000
970 15443 7607 1 109.50000 418.400000
970 15443 10240 1 109.50000 418.400000
970 15443 10889 1 109.50000 418.400000
7607 15443 10240 1 109.50000 418.400000
7607 15443 10889 1 109.50000 418.400000
10240 15443 10889 1 109.50000 418.400000
8887 15444 9233 1 109.50000 418.400000
8887 15444 10089 1 109.50000 418.400000
8887 15444 10890 1 109.50000 418.400000
9233 15444 10089 1 109.50000 418.400000
9233 15444 10890 1 109.50000 418.400000
10089 15444 10890 1 109.50000 418.400000
4694 15445 5411 1 109.50000 418.400000
4694 15445 7096 1 109.50000 418.400000
4694 15445 9232 1 109.50000 418.400000
5411 15445 7096 1 109.50000 418.400000
5411 15445 9232 1 109.50000 418.400000
7096 15445 9232 1 109.50000 418.400000
9719 15446 10892 1 109.50000 418.400000
9719 15446 10893 1 109.50000 418.400000
9719 15446 10894 1 109.50000 418.400000
10892 15446 10893 1 109.50000 418.400000
10892 15446 10894 1 109.50000 418.400000
10893 15446 10894 1 109.50000 418.400000
5738 15447 7691 1 109.50000 418.400000
5738 15447 10772 1 109.50000 418.400000
5738 15447 10895 1 109.50000 418.400000
7691 15447 10772 1 109.50000 418.400000
7691 15447 10895 1 109.50000 418.400000
10772 15447 10895 1 109.50000 418.400000
6296 15448 7705 1 109.50000 418.400000
6296 15448 7886 1 109.50000 418.400000
6296 15448 10321 1 109.50000 418.400000
7705 15448 7886 1 109.50000 418.400000
7705 15448 10321 1 109.50000 418.400000
7886 15448 10321 1 109.50000 418.400000
3462 15449 9082 1 109.50000 418.400000
3462 15449 9083 1 109.50000 418.400000
3462 15449 9911 1 109.50000 418.400000
9082 15449 9083 1 109.50000 418.400000
9082 15449 9911 1 109.50000 418.400000
9083 15449 9911 1 109.50000 418.400000
1137 15450 2092 1 109.50000 418.400000
1137 15450 9448 1 109.50000 418.400000
1137 15450 10896 1 109.50000 418.400000
2092 15450 9448 1 109.50000 418.400000
2092 15450 10896 1 109.50000 418.400000
9448 15450 10896 1 109.50000 418.400000
810 15451 811 1 109.50000 418.400000
810 15451 812 1 109.50000 418.400000
810 15451 813 1 109.50000 418.400000
811 15451 812 1 109.50000 418.400000
811 15451 813 1 109.50000 418.400000
812 15451 813 1 109.50000 418.400000
2927 15452 3343 1 109.50000 418.400000
2927 15452 4403 1 109.50000 418.400000
2927 15452 10416 1 109.50000 418.400000
3343 15452 4403 1 109.50000 418.400000
3343 15452 10416 1 109.50000 418.400000
4403 15452 10416 1 109.50000 418.400000
43 15453 2074 1 109.50000 418.400000
43 15453 8661 1 109.50000 418.400000
43 15453 9958 1 109.50000 418.400000
2074 15453 8661 1 109.50000 418.400000
2074 15453 9958 1 109.50000 418.400000
8661 15453 9958 1 109.50000 418.400000
1630 15454 5698 1 109.50000 418.400000
1630 15454 9236 1 109.50000 418.400000
1630 15454 10897 1 109.50000 418.400000
5698 15454 9236 1 109.50000 418.400000
5698 15454 10897 1 109.50000 418.400000
9236 15454 10897 1 109.50000 418.400000
4826 15455 9994 1 109.50000 418.400000
4826 15455 9995 1 109.50000 418.400000
4826 15455 10868 1 109.50000 418.400000
9994 15455 9995 1 109.50000 418.400000
9994 15455 10868 1 109.50000 418.400000
9995 15455 10868 1 109.50000 418.400000
6581 15456 10870 1 109.50000 418.400000
6581 15456 10898 1 109.50000 418.400000
6581 15456 10899 1 109.50000 418.400000
10870 15456 10898 1 109.50000 418.400000
10870 15456 10899 1 109.50000 418.400000
10898 15456 10899 1 109.50000 418.400000
1031 15457 8769 1 109.50000 418.400000
1031 15457 10865 1 109.50000 418.400000
1031 15457 10900 1 109.50000 418.400000
8769 15457 10865 1 109.50000 418.400000
8769 15457 10900 1 109.50000 418.400000
10865 15457 10900 1 109.50000 418.400000
8012 15458 9286 1 109.50000 418.400000
8012 15458 9606 1 109.50000 418.400000
8012 15458 9724 1 109.50000 418.400000
9286 15458 9606 1 109.50000 418.400000
9286 15458 9724 1 109.50000 418.400000
9606 15458 9724 1 109.50000 418.400000
1738 15459 1740 1 109.50000 418.400000
1738 15459 7174 1 109.50000 418.400000
1738 15459 10854 1 109.50000 418.400000
1740 15459 7174 1 109.50000 418.400000
1740 15459 10854 1 109.50000 418.400000
7174 15459 10854 1 109.50000 418.400000
1340 15460 4200 1 109.50000 418.400000
1340 15460 8003 1 109.50000 418.400000
1340 15460 8345 1 109.50000 418.400000
4200 15460 8003 1 109.50000 418.400000
4200 15460 8345 1 109.50000 418.400000
8003 15460 8345 1 109.50000 418.400000
7544 15461 9126 1 109.50000 418.400000
7544 15461 9296 1 109.50000 418.400000
7544 15461 10673 1 109.50000 418.400000
9126 15461 9296 1 109.50000 418.400000
9126 15461 10673 1 109.50000 418.400000
9296 15461 10673 1 109.50000 418.400000
3521 15462 5349 1 109.50000 418.400000
3521 15462 7816 1 109.50000 418.400000
3521 15462 8221 1 109.50000 418.400000
5349 15462 7816 1 109.50000 418.400000
5349 15462 8221 1 109.50000 418.400000
7816 15462 8221 1 109.50000 418.400000
8120 15463 8780 1 109.50000 418.400000
8120 15463 10855 1 109.50000 418.400000
8120 15463 10903 1 109.50000 418.400000
8780 15463 10855 1 109.50000 418.400000
8780 15463 10903 1 109.50000 418.400000
10855 15463 10903 1 109.50000 418.400000
942 15464 1593 1 109.50000 418.400000
942 15464 10403 1 109.50000 418.400000
942 15464 10779 1 109.50000 418.400000
1593 15464 10403 1 109.50000 418.400000
1593 15464 10779 1 109.50000 418.400000
10403 15464 10779 1 109.50000 418.400000
859 15465 6760 1 109.50000 418.400000
859 15465 10904 1 109.50000 418.400000
859 15465 10905 1 109.50000 418.400000
6760 15465 10904 1 109.50000 418.400000
6760 15465 10905 1 109.50000 418.400000
10904 15465 10905 1 109.50000 418.400000
494 15466 3029 1 109.50000 418.400000
494 15466 9585 1 109.50000 418.400000
494 15466 10906 1 109.50000 418.400000
3029 15466 9585 1 109.50000 418.400000
3029 15466 10906 1 109.50000 418.400000
9585 15466 10906 1 109.50000 418.400000
2110 15467 5221 1 109.50000 418.400000
2110 15467 10907 1 109.50000 418.400000
2110 15467 11180 1 109.50000 418.400000
5221 15467 10907 1 109.50000 418.400000
5221 15467 11180 1 109.50000 418.400000
10907 15467 11180 1 109.50000 418.400000
6158 15468 8858 1 109.50000 418.400000
6158 15468 9775 1 109.50000 418.400000
6158 15468 10908 1 109.50000 418.400000
8858 15468 9775 1 109.50000 418.400000
8858 15468 10908 1 109.50000 418.400000
9775 15468 10908 1 109.50000 418.400000
2969 15469 8399 1 109.50000 418.400000
2969 15469 10909 1 109.50000 418.400000
2969 15469 10910 1 109.50000 418.400000
8399 15469 10909 1 109.50000 418.400000
8399 15469 10910 1 109.50000 418.400000
10909 15469 10910 1 109.50000 418.400000
6480 15470 8869 1 109.50000 418.400000
6480 15470 10867 1 109.50000 418.400000
6480 15470 10912 1 109.50000 418.400000
8869 15470 10867 1 109.50000 418.400000
8869 15470 10912 1 109.50000 418.400000
10867 15470 10912 1 109.50000 418.400000
2790 15471 2799 1 109.50000 418.400000
2790 15471 4006 1 109.50000 418.400000
2790 15471 10617 1 109.50000 418.400000
2799 15471 4006 1 109.50000 418.400000
2799 15471 10617 1 109.50000 418.400000
4006 15471 10617 1 109.50000 418.400000
6330 15472 6891 1 109.50000 418.400000
6330 15472 9789 1 109.50000 418.400000
6330 15472 9819 1 109.50000 418.400000
6891 15472 9789 1 109.50000 418.400000
6891 15472 9819 1 109.50000 418.400000
9789 15472 9819 1 109.50000 418.400000
4697 15473 8967 1 109.50000 418.400000
4697 15473 10889 1 109.50000 418.400000
4697 15473 10914 1 109.50000 418.400000
8967 15473 10889 1 109.50000 418.400000
8967 15473 10914 1 109.50000 418.400000
10889 15473 10914 1 109.50000 418.400000
2103 15474 2411 1 109.50000 418.400000
2103 15474 8577 1 109.50000 418.400000
2103 15474 8706 1 109.50000 418.400000
2411 15474 8577 1 109.50000 418.400000
2411 15474 8706 1 109.50000 418.400000
8577 15474 8706 1 109.50000 418.400000
2102 15475 3651 1 109.50000 418.400000
2102 15475 5999 1 109.50000 418.400000
2102 15475 10884 1 109.50000 418.400000
3651 15475 5999 1 109.50000 418.400000
3651 15475 10884 1 109.50000 418.400000
5999 15475 10884 1 109.50000 418.400000
8911 15476 9425 1 109.50000 418.400000
8911 15476 10211 1 109.50000 418.400000
8911 15476 10915 1 109.50000 418.400000
9425 15476 10211 1 109.50000 418.400000
9425 15476 10915 1 109.50000 418.400000
10211 15476 10915 1 109.50000 418.400000
9582 15477 9593 1 109.50000 418.400000
9582 15477 10832 1 109.50000 418.400000
9582 15477 10916 1 109.50000 418.400000
9593 15477 10832 1 109.50000 418.400000
9593 15477 10916 1 109.50000 418.400000
10832 15477 10916 1 109.50000 418.400000
2373 15478 4155 1 109.50000 418.400000
2373 15478 10138 1 109.50000 418.400000
2373 15478 10917 1 109.50000 418.400000
4155 15478 10138 1 109.50000 418.400000
4155 15478 10917 1 109.50000 418.400000
10138 15478 10917 1 109.50000 418.400000
2769 15479 6783 1 109.50000 418.400000
2769 15479 9772 1 109.50000 418.400000
2769 15479 10714 1 109.50000 418.400000
6783 15479 9772 1 109.50000 418.400000
6783 15479 10714 1 109.50000 418.400000
9772 15479 10714 1 109.50000 418.400000
3149 15480 7071 1 109.50000 418.400000
3149 15480 8531 1 109.50000 418.400000
3149 15480 10282 1 109.50000 418.400000
7071 15480 8531 1 109.50000 418.400000
7071 15480 10282 1 109.50000 418.400000
8531 15480 10282 1 109.50000 418.400000
3060 15481 9600 1 109.50000 418.400000
3060 15481 10597 1 109.50000 418.400000
3060 15481 10918 1 109.50000 418.400000
9600 15481 10597 1 109.50000 418.400000
9600 15481 10918 1 109.50000 418.400000
10597 15481 10918 1 109.50000 418.400000
1876 15482 8050 1 109.50000 418.400000
1876 15482 9047 1 109.50000 418.400000
1876 15482 10581 1 109.50000 418.400000
8050 15482 9047 1 109.50000 418.400000
8050 15482 10581 1 109.50000 418.400000
9047 15482 10581 1 109.50000 418.400000
427 15483 7259 1 109.50000 418.400000
427 15483 7685 1 109.50000 418.400000
427 15483 10797 1 109.50000 418.400000
7259 15483 7685 1 109.50000 418.400000
7259 15483 10797 1 109.50000 418.400000
7685 15483 10797 1 109.50000 418.400000
385 15484 4541 1 109.50000 418.400000
385 15484 8253 1 109.50000 418.400000
385 15484 9618 1 109.50000 418.400000
4541 15484 8253 1 109.50000 418.400000
4541 15484 9618 1 109.50000 418.400000
8253 15484 9618 1 109.50000 418.400000
4529 15485 9957 1 109.50000 418.400000
4529 15485 10150 1 109.50000 418.400000
4529 15485 10151 1 109.50000 418.400000
9957 15485 10150 1 109.50000 418.400000
9957 15485 10151 1 109.50000 418.400000
10150 15485 10151 1 109.50000 418.400000
551 15486 2245 1 109.50000 418.400000
551 15486 4003 1 109.50000 418.400000
551 15486 6297 1 109.50000 418.400000
2245 15486 4003 1 109.50000 418.400000
2245 15486 6297 1 109.50000 418.400000
4003 15486 6297 1 109.50000 418.400000
5049 15487 9041 1 109.50000 418.400000
5049 15487 9042 1 109.50000 418.400000
5049 15487 10919 1 109.50000 418.400000
9041 15487 9042 1 109.50000 418.400000
9041 15487 10919 1 109.50000 418.400000
9042 15487 10919 1 109.50000 418.400000
91 15488 9216 1 109.50000 418.400000
91 15488 9362 1 109.50000 418.400000
91 15488 10903 1 109.50000 418.400000
9216 15488 9362 1 109.50000 418.400000
9216 15488 10903 1 109.50000 418.400000
9362 15488 10903 1 109.50000 418.400000
6200 15489 7505 1 109.50000 418.400000
6200 15489 10687 1 109.50000 418.400000
6200 15489 10876 1 109.50000 418.400000
7505 15489 10687 1 109.50000 418.400000
7505 15489 10876 1 109.50000 418.400000
10687 15489 10876 1 109.50000 418.400000
4825 15490 6168 1 109.50000 418.400000
4825 15490 9103 1 109.50000 418.400000
4825 15490 10532 1 109.50000 418.400000
6168 15490 9103 1 109.50000 418.400000
6168 15490 10532 1 109.50000 418.400000
9103 15490 10532 1 109.50000 418.400000
7407 15491 8716 1 109.50000 418.400000
7407 15491 10921 1 109.50000 418.400000
7407 15491 10922 1 109.50000 418.400000
8716 15491 10921 1 109.50000 418.400000
8716 15491 10922 1 109.50000 418.400000
10921 15491 10922 1 109.50000 418.400000
5252 15492 5253 1 109.50000 418.400000
5252 15492 6619 1 109.50000 418.400000
5252 15492 10001 1 109.50000 418.400000
5253 15492 6619 1 109.50000 418.400000
5253 15492 10001 1 109.50000 418.400000
6619 15492 10001 1 109.50000 418.400000
2523 15493 6872 1 109.50000 418.400000
2523 15493 8185 1 109.50000 418.400000
2523 15493 9259 1 109.50000 418.400000
6872 15493 8185 1 109.50000 418.400000
6872 15493 9259 1 109.50000 418.400000
8185 15493 9259 1 109.50000 418.400000
3509 15494 5943 1 109.50000 418.400000
3509 15494 5944 1 109.50000 418.400000
3509 15494 5945 1 109.50000 418.400000
5943 15494 5944 1 109.50000 418.400000
5943 15494 5945 1 109.50000 418.400000
5944 15494 5945 1 109.50000 418.400000
7975 15495 9989 1 109.50000 418.400000
7975 15495 10269 1 109.50000 418.400000
7975 15495 10924 1 109.50000 418.400000
9989 15495 10269 1 109.50000 418.400000
9989 15495 10924 1 109.50000 418.400000
10269 15495 10924 1 109.50000 418.400000
3889 15496 6295 1 109.50000 418.400000
3889 15496 7887 1 109.50000 418.400000
3889 15496 8411 1 109.50000 418.400000
6295 15496 7887 1 109.50000 418.400000
6295 15496 8411 1 109.50000 418.400000
7887 15496 8411 1 109.50000 418.400000
5237 15497 6122 1 109.50000 418.400000
5237 15497 6784 1 109.50000 418.400000
5237 15497 10629 1 109.50000 418.400000
6122 15497 6784 1 109.50000 418.400000
6122 15497 10629 1 109.50000 418.400000
6784 15497 10629 1 109.50000 418.400000
4279 15498 6109 1 109.50000 418.400000
4279 15498 10376 1 109.50000 418.400000
4279 15498 10925 1 109.50000 418.400000
6109 15498 10376 1 109.50000 418.400000
6109 15498 10925 1 109.50000 418.400000
10376 15498 10925 1 109.50000 418.400000
1436 15499 4389 1 109.50000 418.400000
1436 15499 8757 1 109.50000 418.400000
1436 15499 10712 1 109.50000 418.400000
4389 15499 8757 1 109.50000 418.400000
4389 15499 10712 1 109.50000 418.400000
8757 15499 10712 1 109.50000 418.400000
1870 15500 2546 1 109.50000 418.400000
1870 15500 9122 1 109.50000 418.400000
1870 15500 9518 1 109.50000 418.400000
2546 15500 9122 1 109.50000 418.400000
2546 15500 9518 1 109.50000 418.400000
9122 15500 9518 1 109.50000 418.400000
8298 15501 10570 1 109.50000 418.400000
8298 15501 10926 1 109.50000 418.400000
8298 15501 11219 1 109.50000 418.400000
10570 15501 10926 1 109.50000 418.400000
10570 15501 11219 1 109.50000 418.400000
10926 15501 11219 1 109.50000 418.400000
1844 15502 10453 1 109.50000 418.400000
1844 15502 10908 1 109.50000 418.400000
1844 15502 10927 1 109.50000 418.400000
10453 15502 10908 1 109.50000 418.400000
10453 15502 10927 1 109.50000 418.400000
10908 15502 10927 1 109.50000 418.400000
5550 15503 7615 1 109.50000 418.400000
5550 15503 10928 1 109.50000 418.400000
5550 15503 10929 1 109.50000 418.400000
7615 15503 10928 1 109.50000 418.400000
7615 15503 10929 1 109.50000 418.400000
10928 15503 10929 1 109.50000 418.400000
9300 15504 9349 1 109.50000 418.400000
9300 15504 10930 1 109.50000 418.400000
9300 15504 11017 1 109.50000 418.400000
9349 15504 10930 1 109.50000 418.400000
9349 15504 11017 1 109.50000 418.400000
10930 15504 11017 1 109.50000 418.400000
1462 15505 8608 1 109.50000 418.400000
1462 15505 9525 1 109.50000 418.400000
1462 15505 9947 1 109.50000 418.400000
8608 15505 9525 1 109.50000 418.400000
8608 15505 9947 1 109.50000 418.400000
9525 15505 9947 1 109.50000 418.400000
2156 15506 4857 1 109.50000 418.400000
2156 15506 9074 1 109.50000 418.400000
2156 15506 10426 1 109.50000 418.400000
4857 15506 9074 1 109.50000 418.400000
4857 15506 10426 1 109.50000 418.400000
9074 15506 10426 1 109.50000 418.400000
1828 15507 2231 1 109.50000 418.400000
1828 15507 5705 1 109.50000 418.400000
1828 15507 10042 1 109.50000 418.400000
2231 15507 5705 1 109.50000 418.400000
2231 15507 10042 1 109.50000 418.400000
5705 15507 10042 1 109.50000 418.400000
2028 15508 3313 1 109.50000 418.400000
2028 15508 7727 1 109.50000 418.400000
2028 15508 9359 1 109.50000 418.400000
3313 15508 7727 1 109.50000 418.400000
3313 15508 9359 1 109.50000 418.400000
7727 15508 9359 1 109.50000 418.400000
1452 15509 9647 1 109.50000 418.400000
1452 15509 10487 1 109.50000 418.400000
1452 15509 10657 1 109.50000 418.400000
9647 15509 10487 1 109.50000 418.400000
9647 15509 10657 1 109.50000 418.400000
10487 15509 10657 1 109.50000 418.400000
3043 15510 3046 1 109.50000 418.400000
3043 15510 8683 1 109.50000 418.400000
3043 15510 10025 1 109.50000 418.400000
3046 15510 8683 1 109.50000 418.400000
3046 15510 10025 1 109.50000 418.400000
8683 15510 10025 1 109.50000 418.400000
7435 15511 9528 1 109.50000 418.400000
7435 15511 10334 1 109.50000 418.400000
7435 15511 10931 1 109.50000 418.400000
9528 15511 10334 1 109.50000 418.400000
9528 15511 10931 1 109.50000 418.400000
10334 15511 10931 1 109.50000 418.400000
6047 15512 6552 1 109.50000 418.400000
6047 15512 6587 1 109.50000 418.400000
6047 15512 7963 1 109.50000 418.400000
6552 15512 6587 1 109.50000 418.400000
6552 15512 7963 1 109.50000 418.400000
6587 15512 7963 1 109.50000 418.400000
1362 15513 7116 1 109.50000 418.400000
1362 15513 9829 1 109.50000 418.400000
1362 15513 10732 1 109.50000 418.400000
7116 15513 9829 1 109.50000 418.400000
7116 15513 10732 1 109.50000 418.400000
9829 15513 10732 1 109.50000 418.400000
1149 15514 4240 1 109.50000 418.400000
1149 15514 7147 1 109.50000 418.400000
1149 15514 10834 1 109.50000 418.400000
4240 15514 7147 1 109.50000 418.400000
4240 15514 10834 1 109.50000 418.400000
7147 15514 10834 1 109.50000 418.400000
5381 15515 8630 1 109.50000 418.400000
5381 15515 8700 1 109.50000 418.400000
5381 15515 10932 1 109.50000 418.400000
8630 15515 8700 1 109.50000 418.400000
8630 15515 10932 1 109.50000 418.400000
8700 15515 10932 1 109.50000 418.400000
206 15516 4662 1 109.50000 418.400000
206 15516 10277 1 109.50000 418.400000
206 15516 10737 1 109.50000 418.400000
4662 15516 10277 1 109.50000 418.400000
4662 15516 10737 1 109.50000 418.400000
10277 15516 10737 1 109.50000 418.400000
3515 15517 3826 1 109.50000 418.400000
3515 15517 5072 1 109.50000 418.400000
3515 15517 6175 1 109.50000 418.400000
3826 15517 5072 1 109.50000 418.400000
3826 15517 6175 1 109.50000 418.400000
5072 15517 6175 1 109.50000 418.400000
361 15518 2397 1 109.50000 418.400000
361 15518 10504 1 109.50000 418.400000
361 15518 10933 1 109.50000 418.400000
2397 15518 10504 1 109.50000 418.400000
2397 15518 10933 1 109.50000 418.400000
10504 15518 10933 1 109.50000 418.400000
6108 15519 6197 1 109.50000 418.400000
6108 15519 10801 1 109.50000 418.400000
6108 15519 11188 1 109.50000 418.400000
6197 15519 10801 1 109.50000 418.400000
6197 15519 11188 1 109.50000 418.400000
10801 15519 11188 1 109.50000 418.400000
1294 15520 1443 1 109.50000 418.400000
1294 15520 3468 1 109.50000 418.400000
1294 15520 9661 1 109.50000 418.400000
1443 15520 3468 1 109.50000 418.400000
1443 15520 9661 1 109.50000 418.400000
3468 15520 9661 1 109.50000 418.400000
1904 15521 9358 1 109.50000 418.400000
1904 15521 9901 1 109.50000 418.400000
1904 15521 10934 1 109.50000 418.400000
9358 15521 9901 1 109.50000 418.400000
9358 15521 10934 1 109.50000 418.400000
9901 15521 10934 1 109.50000 418.400000
73 15522 3562 1 109.50000 418.400000
73 15522 3564 1 109.50000 418.400000
73 15522 3565 1 109.50000 418.400000
3562 15522 3564 1 109.50000 418.400000
3562 15522 3565 1 109.50000 418.400000
3564 15522 3565 1 109.50000 418.400000
1975 15523 1977 1 109.50000 418.400000
1975 15523 6247 1 109.50000 418.400000
1975 15523 10636 1 109.50000 418.400000
1977 15523 6247 1 109.50000 418.400000
1977 15523 10636 1 109.50000 418.400000
6247 15523 10636 1 109.50000 418.400000
538 15524 6125 1 109.50000 418.400000
538 15524 7819 1 109.50000 418.400000
538 15524 10443 1 109.50000 418.400000
6125 15524 7819 1 109.50000 418.400000
6125 15524 10443 1 109.50000 418.400000
7819 15524 10443 1 109.50000 418.400000
1176 15525 3705 1 109.50000 418.400000
1176 15525 7655 1 109.50000 418.400000
1176 15525 10493 1 109.50000 418.400000
3705 15525 7655 1 109.50000 418.400000
3705 15525 10493 1 109.50000 418.400000
7655 15525 10493 1 109.50000 418.400000
6317 15526 10681 1 109.50000 418.400000
6317 15526 10863 1 109.50000 418.400000
6317 15526 10935 1 109.50000 418.400000
10681 15526 10863 1 109.50000 418.400000
10681 15526 10935 1 109.50000 418.400000
10863 15526 10935 1 109.50000 418.400000
1357 15527 5585 1 109.50000 418.400000
1357 15527 6812 1 109.50000 418.400000
1357 15527 8417 1 109.50000 418.400000
5585 15527 6812 1 109.50000 418.400000
5585 15527 8417 1 109.50000 418.400000
6812 15527 8417 1 109.50000 418.400000
1575 15528 1576 1 109.50000 418.400000
1575 15528 8450 1 109.50000 418.400000
1575 15528 9851 1 109.50000 418.400000
1576 15528 8450 1 109.50000 418.400000
1576 15528 9851 1 109.50000 418.400000
8450 15528 9851 1 109.50000 418.400000
1485 15529 3481 1 109.50000 418.400000
1485 15529 6803 1 109.50000 418.400000
1485 15529 9706 1 109.50000 418.400000
3481 15529 6803 1 109.50000 418.400000
3481 15529 9706 1 109.50000 418.400000
6803 15529 9706 1 109.50000 418.400000
452 15530 6068 1 109.50000 418.400000
452 15530 8026 1 109.50000 418.400000
452 15530 10878 1 109.50000 418.400000
6068 15530 8026 1 109.50000 418.400000
6068 15530 10878 1 109.50000 418.400000
8026 15530 10878 1 109.50000 418.400000
320 15531 3192 1 109.50000 418.400000
320 15531 7764 1 109.50000 418.400000
320 15531 10337 1 109.50000 418.400000
3192 15531 7764 1 109.50000 418.400000
3192 15531 10337 1 109.50000 418.400000
7764 15531 10337 1 109.50000 418.400000
5505 15532 7125 1 109.50000 418.400000
5505 15532 7222 1 109.50000 418.400000
5505 15532 9985 1 109.50000 418.400000
7125 15532 7222 1 109.50000 418.400000
7125 15532 9985 1 109.50000 418.400000
7222 15532 9985 1 109.50000 418.400000
1070 15533 5255 1 109.50000 418.400000
1070 15533 9608 1 109.50000 418.400000
1070 15533 10875 1 109.50000 418.400000
5255 15533 9608 1 109.50000 418.400000
5255 15533 10875 1 109.50000 418.400000
9608 15533 10875 1 109.50000 418.400000
3388 15534 5659 1 109.50000 418.400000
3388 15534 9333 1 109.50000 418.400000
3388 15534 10045 1 109.50000 418.400000
5659 15534 9333 1 109.50000 418.400000
5659 15534 10045 1 109.50000 418.400000
9333 15534 10045 1 109.50000 418.400000
1632 15535 8767 1 109.50000 418.400000
1632 15535 10715 1 109.50000 418.400000
1632 15535 10936 1 109.50000 418.400000
8767 15535 10715 1 109.50000 418.400000
8767 15535 10936 1 109.50000 418.400000
10715 15535 10936 1 109.50000 418.400000
3801 15536 4804 1 109.50000 418.400000
3801 15536 7027 1 109.50000 418.400000
3801 15536 10683 1 109.50000 418.400000
4804 15536 7027 1 109.50000 418.400000
4804 15536 10683 1 109.50000 418.400000
7027 15536 10683 1 109.50000 418.400000
8611 15537 8614 1 109.50000 418.400000
8611 15537 8840 1 109.50000 418.400000
8611 15537 10937 1 109.50000 418.400000
8614 15537 8840 1 109.50000 418.400000
8614 15537 10937 1 109.50000 418.400000
8840 15537 10937 1 109.50000 418.400000
6142 15538 6337 1 109.50000 418.400000
6142 15538 7735 1 109.50000 418.400000
6142 15538 10938 1 109.50000 418.400000
6337 15538 7735 1 109.50000 418.400000
6337 15538 10938 1 109.50000 418.400000
7735 15538 10938 1 109.50000 418.400000
3318 15539 5479 1 109.50000 418.400000
3318 15539 6064 1 109.50000 418.400000
3318 15539 10320 1 109.50000 418.400000
5479 15539 6064 1 109.50000 418.400000
5479 15539 10320 1 109.50000 418.400000
6064 15539 10320 1 109.50000 418.400000
1178 15540 6597 1 109.50000 418.400000
1178 15540 7702 1 109.50000 418.400000
1178 15540 9832 1 109.50000 418.400000
6597 15540 7702 1 109.50000 418.400000
6597 15540 9832 1 109.50000 418.400000
7702 15540 9832 1 109.50000 418.400000
352 15541 1479 1 109.50000 418.400000
352 15541 7944 1 109.50000 418.400000
352 15541 10939 1 109.50000 418.400000
1479 15541 7944 1 109.50000 418.400000
1479 15541 10939 1 109.50000 418.400000
7944 15541 10939 1 109.50000 418.400000
3844 15542 6584 1 109.50000 418.400000
3844 15542 9265 1 109.50000 418.400000
3844 15542 10941 1 109.50000 418.400000
6584 15542 9265 1 109.50000 418.400000
6584 15542 10941 1 109.50000 418.400000
9265 15542 10941 1 109.50000 418.400000
2961 15543 7423 1 109.50000 418.400000
2961 15543 9013 1 109.50000 418.400000
2961 15543 9369 1 109.50000 418.400000
7423 15543 9013 1 109.50000 418.400000
7423 15543 9369 1 109.50000 418.400000
9013 15543 9369 1 109.50000 418.400000
5567 15544 7131 1 109.50000 418.400000
5567 15544 7132 1 109.50000 418.400000
5567 15544 10084 1 109.50000 418.400000
7131 15544 7132 1 109.50000 418.400000
7131 15544 10084 1 109.50000 418.400000
7132 15544 10084 1 109.50000 418.400000
7825 15545 10058 1 109.50000 418.400000
7825 15545 10217 1 109.50000 418.400000
7825 15545 10456 1 109.50000 418.400000
10058 15545 10217 1 109.50000 418.400000
10058 15545 10456 1 109.50000 418.400000
10217 15545 10456 1 109.50000 418.400000
2629 15546 5862 1 109.50000 418.400000
2629 15546 10943 1 109.50000 418.400000
2629 15546 10944 1 109.50000 418.400000
5862 15546 10943 1 109.50000 418.400000
5862 15546 10944 1 109.50000 418.400000
10943 15546 10944 1 109.50000 418.400000
3737 15547 6679 1 109.50000 418.400000
3737 15547 7679 1 109.50000 418.400000
3737 15547 9708 1 109.50000 418.400000
6679 15547 7679 1 109.50000 418.400000
6679 15547 9708 1 109.50000 418.400000
7679 15547 9708 1 109.50000 418.400000
976 15548 3014 1 109.50000 418.400000
976 15548 10811 1 109.50000 418.400000
976 15548 10945 1 109.50000 418.400000
3014 15548 10811 1 109.50000 418.400000
3014 15548 10945 1 109.50000 418.400000
10811 15548 10945 1 109.50000 418.400000
7228 15549 8653 1 109.50000 418.400000
7228 15549 9113 1 109.50000 418.400000
7228 15549 10946 1 109.50000 418.400000
8653 15549 9113 1 109.50000 418.400000
8653 15549 10946 1 109.50000 418.400000
9113 15549 10946 1 109.50000 418.400000
3716 15550 6459 1 109.50000 418.400000
3716 15550 9341 1 109.50000 418.400000
3716 15550 10947 1 109.50000 418.400000
6459 15550 9341 1 109.50000 418.400000
6459 15550 10947 1 109.50000 418.400000
9341 15550 10947 1 109.50000 418.400000
2822 15551 4848 1 109.50000 418.400000
2822 15551 4849 1 109.50000 418.400000
2822 15551 10948 1 109.50000 418.400000
4848 15551 4849 1 109.50000 418.400000
4848 15551 10948 1 109.50000 418.400000
4849 15551 10948 1 109.50000 418.400000
107 15552 2062 1 109.50000 418.400000
107 15552 2768 1 109.50000 418.400000
107 15552 10527 1 109.50000 418.400000
2062 15552 2768 1 109.50000 418.400000
2062 15552 10527 1 109.50000 418.400000
2768 15552 10527 1 109.50000 418.400000
1017 15553 8550 1 109.50000 418.400000
1017 15553 10475 1 109.50000 418.400000
1017 15553 10857 1 109.50000 418.400000
8550 15553 10475 1 109.50000 418.400000
8550 15553 10857 1 109.50000 418.400000
10475 15553 10857 1 109.50000 418.400000
10219 15554 10860 1 109.50000 418.400000
10219 15554 10951 1 109.50000 418.400000
10219 15554 10952 1 109.50000 418.400000
10860 15554 10951 1 109.50000 418.400000
10860 15554 10952 1 109.50000 418.400000
10951 15554 10952 1 109.50000 418.400000
9066 15555 9976 1 109.50000 418.400000
9066 15555 10348 1 109.50000 418.400000
9066 15555 10953 1 109.50000 418.400000
9976 15555 10348 1 109.50000 418.400000
9976 15555 10953 1 109.50000 418.400000
10348 15555 10953 1 109.50000 418.400000
836 15556 4727 1 109.50000 418.400000
836 15556 10013 1 109.50000 418.400000
836 15556 10900 1 109.50000 418.400000
4727 15556 10013 1 109.50000 418.400000
4727 15556 10900 1 109.50000 418.400000
10013 15556 10900 1 109.50000 418.400000
4139 15557 4361 1 109.50000 418.400000
4139 15557 5260 1 109.50000 418.400000
4139 15557 9654 1 109.50000 418.400000
4361 15557 5260 1 109.50000 418.400000
4361 15557 9654 1 109.50000 418.400000
5260 15557 9654 1 109.50000 418.400000
1826 15558 1989 1 109.50000 418.400000
1826 15558 8164 1 109.50000 418.400000
1826 15558 10954 1 109.50000 418.400000
1989 15558 8164 1 109.50000 418.400000
1989 15558 10954 1 109.50000 418.400000
8164 15558 10954 1 109.50000 418.400000
5545 15559 5547 1 109.50000 418.400000
5545 15559 7949 1 109.50000 418.400000
5545 15559 10955 1 109.50000 418.400000
5547 15559 7949 1 109.50000 418.400000
5547 15559 10955 1 109.50000 418.400000
7949 15559 10955 1 109.50000 418.400000
3075 15560 7994 1 109.50000 418.400000
3075 15560 9302 1 109.50000 418.400000
3075 15560 10640 1 109.50000 418.400000
7994 15560 9302 1 109.50000 418.400000
7994 15560 10640 1 109.50000 418.400000
9302 15560 10640 1 109.50000 418.400000
1057 15561 5507 1 109.50000 418.400000
1057 15561 8477 1 109.50000 418.400000
1057 15561 10956 1 109.50000 418.400000
5507 15561 8477 1 109.50000 418.400000
5507 15561 10956 1 109.50000 418.400000
8477 15561 10956 1 109.50000 418.400000
2816 15562 3206 1 109.50000 418.400000
2816 15562 9998 1 109.50000 418.400000
2816 15562 10141 1 109.50000 418.400000
3206 15562 9998 1 109.50000 418.400000
3206 15562 10141 1 109.50000 418.400000
9998 15562 10141 1 109.50000 418.400000
3855 15563 6298 1 109.50000 418.400000
3855 15563 7566 1 109.50000 418.400000
3855 15563 10242 1 109.50000 418.400000
6298 15563 7566 1 109.50000 418.400000
6298 15563 10242 1 109.50000 418.400000
7566 15563 10242 1 109.50000 418.400000
2206 15564 4940 1 109.50000 418.400000
2206 15564 10074 1 109.50000 418.400000
2206 15564 10825 1 109.50000 418.400000
4940 15564 10074 1 109.50000 418.400000
4940 15564 10825 1 109.50000 418.400000
10074 15564 10825 1 109.50000 418.400000
1419 15565 6711 1 109.50000 418.400000
1419 15565 8831 1 109.50000 418.400000
1419 15565 9121 1 109.50000 418.400000
6711 15565 8831 1 109.50000 418.400000
6711 15565 9121 1 109.50000 418.400000
8831 15565 9121 1 109.50000 418.400000
3524 15566 5373 1 109.50000 418.400000
3524 15566 5772 1 109.50000 418.400000
3524 15566 9263 1 109.50000 418.400000
5373 15566 5772 1 109.50000 418.400000
5373 15566 9263 1 109.50000 418.400000
5772 15566 9263 1 109.50000 418.400000
4265 15567 6654 1 109.50000 418.400000
4265 15567 7372 1 109.50000 418.400000
4265 15567 7750 1 109.50000 418.400000
6654 15567 7372 1 109.50000 418.400000
6654 15567 7750 1 109.50000 418.400000
7372 15567 7750 1 109.50000 418.400000
3987 15568 7079 1 109.50000 418.400000
3987 15568 8625 1 109.50000 418.400000
3987 15568 10631 1 109.50000 418.400000
7079 15568 8625 1 109.50000 418.400000
7079 15568 10631 1 109.50000 418.400000
8625 15568 10631 1 109.50000 418.400000
6724 15569 6974 1 109.50000 418.400000
6724 15569 7164 1 109.50000 418.400000
6724 15569 10958 1 109.50000 418.400000
6974 15569 7164 1 109.50000 418.400000
6974 15569 10958 1 109.50000 418.400000
7164 15569 10958 1 109.50000 418.400000
6390 15570 7754 1 109.50000 418.400000
6390 15570 10565 1 109.50000 418.400000
6390 15570 10842 1 109.50000 418.400000
7754 15570 10565 1 109.50000 418.400000
7754 15570 10842 1 109.50000 418.400000
10565 15570 10842 1 109.50000 418.400000
8492 15571 10959 1 109.50000 418.400000
8492 15571 10960 1 109.50000 418.400000
8492 15571 10961 1 109.50000 418.400000
10959 15571 10960 1 109.50000 418.400000
10959 15571 10961 1 109.50000 418.400000
10960 15571 10961 1 109.50000 418.400000
3137 15572 3523 1 109.50000 418.400000
3137 15572 8977 1 109.50000 418.400000
3137 15572 10962 1 109.50000 418.400000
3523 15572 8977 1 109.50000 418.400000
3523 15572 10962 1 109.50000 418.400000
8977 15572 10962 1 109.50000 418.400000
826 15573 2854 1 109.50000 418.400000
826 15573 5089 1 109.50000 418.400000
826 15573 10223 1 109.50000 418.400000
2854 15573 5089 1 109.50000 418.400000
2854 15573 10223 1 109.50000 418.400000
5089 15573 10223 1 109.50000 418.400000
4818 15574 6211 1 109.50000 418.400000
4818 15574 8183 1 109.50000 418.400000
4818 15574 10963 1 109.50000 418.400000
6211 15574 8183 1 109.50000 418.400000
6211 15574 10963 1 109.50000 418.400000
8183 15574 10963 1 109.50000 418.400000
3683 15575 5574 1 109.50000 418.400000
3683 15575 6864 1 109.50000 418.400000
3683 15575 10966 1 109.50000 418.400000
5574 15575 6864 1 109.50000 418.400000
5574 15575 10966 1 109.50000 418.400000
6864 15575 10966 1 109.50000 418.400000
2519 15576 8821 1 109.50000 418.400000
2519 15576 9714 1 109.50000 418.400000
2519 15576 10113 1 109.50000 418.400000
8821 15576 9714 1 109.50000 418.400000
8821 15576 10113 1 109.50000 418.400000
9714 15576 10113 1 109.50000 418.400000
7033 15577 9109 1 109.50000 418.400000
7033 15577 10729 1 109.50000 418.400000
7033 15577 10967 1 109.50000 418.400000
9109 15577 10729 1 109.50000 418.400000
9109 15577 10967 1 109.50000 418.400000
10729 15577 10967 1 109.50000 418.400000
795 15578 5177 1 109.50000 418.400000
795 15578 10806 1 109.50000 418.400000
795 15578 10968 1 109.50000 418.400000
5177 15578 10806 1 109.50000 418.400000
5177 15578 10968 1 109.50000 418.400000
10806 15578 10968 1 109.50000 418.400000
8740 15579 10744 1 109.50000 418.400000
8740 15579 10824 1 109.50000 418.400000
8740 15579 10969 1 109.50000 418.400000
10744 15579 10824 1 109.50000 418.400000
10744 15579 10969 1 109.50000 418.400000
10824 15579 10969 1 109.50000 418.400000
5353 15580 8112 1 109.50000 418.400000
5353 15580 9774 1 109.50000 418.400000
5353 15580 10970 1 109.50000 418.400000
8112 15580 9774 1 109.50000 418.400000
8112 15580 10970 1 109.50000 418.400000
9774 15580 10970 1 109.50000 418.400000
7758 15581 10365 1 109.50000 418.400000
7758 15581 10388 1 109.50000 418.400000
7758 15581 10971 1 109.50000 418.400000
10365 15581 10388 1 109.50000 418.400000
10365 15581 10971 1 109.50000 418.400000
10388 15581 10971 1 109.50000 418.400000
8233 15582 9723 1 109.50000 418.400000
8233 15582 10130 1 109.50000 418.400000
8233 15582 10972 1 109.50000 418.400000
9723 15582 10130 1 109.50000 418.400000
9723 15582 10972 1 109.50000 418.400000
10130 15582 10972 1 109.50000 418.400000
4243 15583 4965 1 109.50000 418.400000
4243 15583 6556 1 109.50000 418.400000
4243 15583 8993 1 109.50000 418.400000
4965 15583 6556 1 109.50000 418.400000
4965 15583 8993 1 109.50000 418.400000
6556 15583 8993 1 109.50000 418.400000
1104 15584 6947 1 109.50000 418.400000
1104 15584 8109 1 109.50000 418.400000
1104 15584 10128 1 109.50000 418.400000
6947 15584 8109 1 109.50000 418.400000
6947 15584 10128 1 109.50000 418.400000
8109 15584 10128 1 109.50000 418.400000
1989 15585 1990 1 109.50000 418.400000
1989 15585 7199 1 109.50000 418.400000
1989 15585 10973 1 109.50000 418.400000
1990 15585 7199 1 109.50000 418.400000
1990 15585 10973 1 109.50000 418.400000
7199 15585 10973 1 109.50000 418.400000
1306 15586 2398 1 109.50000 418.400000
1306 15586 2401 1 109.50000 418.400000
1306 15586 4936 1 109.50000 418.400000
2398 15586 2401 1 109.50000 418.400000
2398 15586 4936 1 109.50000 418.400000
2401 15586 4936 1 109.50000 418.400000
5454 15587 6877 1 109.50000 418.400000
5454 15587 10020 1 109.50000 418.400000
5454 15587 10975 1 109.50000 418.400000
6877 15587 10020 1 109.50000 418.400000
6877 15587 10975 1 109.50000 418.400000
10020 15587 10975 1 109.50000 418.400000
1572 15588 2632 1 109.50000 418.400000
1572 15588 4967 1 109.50000 418.400000
1572 15588 9026 1 109.50000 418.400000
2632 15588 4967 1 109.50000 418.400000
2632 15588 9026 1 109.50000 418.400000
4967 15588 9026 1 109.50000 418.400000
7881 15589 8818 1 109.50000 418.400000
7881 15589 10205 1 109.50000 418.400000
7881 15589 10763 1 109.50000 418.400000
8818 15589 10205 1 109.50000 418.400000
8818 15589 10763 1 109.50000 418.400000
10205 15589 10763 1 109.50000 418.400000
5394 15590 10592 1 109.50000 418.400000
5394 15590 10976 1 109.50000 418.400000
5394 15590 11206 1 109.50000 418.400000
10592 15590 10976 1 109.50000 418.400000
10592 15590 11206 1 109.50000 418.400000
10976 15590 11206 1 109.50000 418.400000
3224 15591 4080 1 109.50000 418.400000
3224 15591 4495 1 109.50000 418.400000
3224 15591 10736 1 109.50000 418.400000
4080 15591 4495 1 109.50000 418.400000
4080 15591 10736 1 109.50000 418.400000
4495 15591 10736 1 109.50000 418.400000
3467 15592 5385 1 109.50000 418.400000
3467 15592 9023 1 109.50000 418.400000
3467 15592 10769 1 109.50000 418.400000
5385 15592 9023 1 109.50000 418.400000
5385 15592 10769 1 109.50000 418.400000
9023 15592 10769 1 109.50000 418.400000
4613 15593 10919 1 109.50000 418.400000
4613 15593 10977 1 109.50000 418.400000
4613 15593 10978 1 109.50000 418.400000
10919 15593 10977 1 109.50000 418.400000
10919 15593 10978 1 109.50000 418.400000
10977 15593 10978 1 109.50000 418.400000
264 15594 1732 1 109.50000 418.400000
264 15594 10494 1 109.50000 418.400000
264 15594 10979 1 109.50000 418.400000
1732 15594 10494 1 109.50000 418.400000
1732 15594 10979 1 109.50000 418.400000
10494 15594 10979 1 109.50000 418.400000
7021 15595 7345 1 109.50000 418.400000
7021 15595 10964 1 109.50000 418.400000
7021 15595 10981 1 109.50000 418.400000
7345 15595 10964 1 109.50000 418.400000
7345 15595 10981 1 109.50000 418.400000
10964 15595 10981 1 109.50000 418.400000
4856 15596 4889 1 109.50000 418.400000
4856 15596 10367 1 109.50000 418.400000
4856 15596 10982 1 109.50000 418.400000
4889 15596 10367 1 109.50000 418.400000
4889 15596 10982 1 109.50000 418.400000
10367 15596 10982 1 109.50000 418.400000
1221 15597 2349 1 109.50000 418.400000
1221 15597 2602 1 109.50000 418.400000
1221 15597 10694 1 109.50000 418.400000
2349 15597 2602 1 109.50000 418.400000
2349 15597 10694 1 109.50000 418.400000
2602 15597 10694 1 109.50000 418.400000
4605 15598 8535 1 109.50000 418.400000
4605 15598 9573 1 109.50000 418.400000
4605 15598 9855 1 109.50000 418.400000
8535 15598 9573 1 109.50000 418.400000
8535 15598 9855 1 109.50000 418.400000
9573 15598 9855 1 109.50000 418.400000
1125 15599 4127 1 109.50000 418.400000
1125 15599 8807 1 109.50000 418.400000
1125 15599 10676 1 109.50000 418.400000
4127 15599 8807 1 109.50000 418.400000
4127 15599 10676 1 109.50000 418.400000
8807 15599 10676 1 109.50000 418.400000
7390 15600 10983 1 109.50000 418.400000
7390 15600 10984 1 109.50000 418.400000
7390 15600 10985 1 109.50000 418.400000
10983 15600 10984 1 109.50000 418.400000
10983 15600 10985 1 109.50000 418.400000
10984 15600 10985 1 109.50000 418.400000
3428 15601 8103 1 109.50000 418.400000
3428 15601 9157 1 109.50000 418.400000
3428 15601 10986 1 109.50000 418.400000
8103 15601 9157 1 109.50000 418.400000
8103 15601 10986 1 109.50000 418.400000
9157 15601 10986 1 109.50000 418.400000
242 15602 3690 1 109.50000 418.400000
242 15602 4646 1 109.50000 418.400000
242 15602 7486 1 109.50000 418.400000
3690 15602 4646 1 109.50000 418.400000
3690 15602 7486 1 109.50000 418.400000
4646 15602 7486 1 109.50000 418.400000
3546 15603 3888 1 109.50000 418.400000
3546 15603 6828 1 109.50000 418.400000
3546 15603 9203 1 109.50000 418.400000
3888 15603 6828 1 109.50000 418.400000
3888 15603 9203 1 109.50000 418.400000
6828 15603 9203 1 109.50000 418.400000
1528 15604 7517 1 109.50000 418.400000
1528 15604 8509 1 109.50000 418.400000
1528 15604 10874 1 109.50000 418.400000
7517 15604 8509 1 109.50000 418.400000
7517 15604 10874 1 109.50000 418.400000
8509 15604 10874 1 109.50000 418.400000
6531 15605 10395 1 109.50000 418.400000
6531 15605 10780 1 109.50000 418.400000
6531 15605 10987 1 109.50000 418.400000
10395 15605 10780 1 109.50000 418.400000
10395 15605 10987 1 109.50000 418.400000
10780 15605 10987 1 109.50000 418.400000
2639 15606 9480 1 109.50000 418.400000
2639 15606 10956 1 109.50000 418.400000
2639 15606 10989 1 109.50000 418.400000
9480 15606 10956 1 109.50000 418.400000
9480 15606 10989 1 109.50000 418.400000
10956 15606 10989 1 109.50000 418.400000
4504 15607 6012 1 109.50000 418.400000
4504 15607 8560 1 109.50000 418.400000
4504 15607 9704 1 109.50000 418.400000
6012 15607 8560 1 109.50000 418.400000
6012 15607 9704 1 109.50000 418.400000
8560 15607 9704 1 109.50000 418.400000
5816 15608 6239 1 109.50000 418.400000
5816 15608 6378 1 109.50000 418.400000
5816 15608 8142 1 109.50000 418.400000
6239 15608 6378 1 109.50000 418.400000
6239 15608 8142 1 109.50000 418.400000
6378 15608 8142 1 109.50000 418.400000
3242 15609 6114 1 109.50000 418.400000
3242 15609 7513 1 109.50000 418.400000
3242 15609 10669 1 109.50000 418.400000
6114 15609 7513 1 109.50000 418.400000
6114 15609 10669 1 109.50000 418.400000
7513 15609 10669 1 109.50000 418.400000
776 15610 7745 1 109.50000 418.400000
776 15610 9363 1 109.50000 418.400000
776 15610 10990 1 109.50000 418.400000
7745 15610 9363 1 109.50000 418.400000
7745 15610 10990 1 109.50000 418.400000
9363 15610 10990 1 109.50000 418.400000
6287 15611 8544 1 109.50000 418.400000
6287 15611 9431 1 109.50000 418.400000
6287 15611 10692 1 109.50000 418.400000
8544 15611 9431 1 109.50000 418.400000
8544 15611 10692 1 109.50000 418.400000
9431 15611 10692 1 109.50000 418.400000
516 15612 3339 1 109.50000 418.400000
516 15612 3596 1 109.50000 418.400000
516 15612 10982 1 109.50000 418.400000
3339 15612 3596 1 109.50000 418.400000
3339 15612 10982 1 109.50000 418.400000
3596 15612 10982 1 109.50000 418.400000
295 15613 7237 1 109.50000 418.400000
295 15613 9160 1 109.50000 418.400000
295 15613 10775 1 109.50000 418.400000
7237 15613 9160 1 109.50000 418.400000
7237 15613 10775 1 109.50000 418.400000
9160 15613 10775 1 109.50000 418.400000
4863 15614 10333 1 109.50000 418.400000
4863 15614 10444 1 109.50000 418.400000
4863 15614 10724 1 109.50000 418.400000
10333 15614 10444 1 109.50000 418.400000
10333 15614 10724 1 109.50000 418.400000
10444 15614 10724 1 109.50000 418.400000
3785 15615 6140 1 109.50000 418.400000
3785 15615 6252 1 109.50000 418.400000
3785 15615 6504 1 109.50000 418.400000
6140 15615 6252 1 109.50000 418.400000
6140 15615 6504 1 109.50000 418.400000
6252 15615 6504 1 109.50000 418.400000
5923 15616 6104 1 109.50000 418.400000
5923 15616 8209 1 109.50000 418.400000
5923 15616 10951 1 109.50000 418.400000
6104 15616 8209 1 109.50000 418.400000
6104 15616 10951 1 109.50000 418.400000
8209 15616 10951 1 109.50000 418.400000
6564 15617 7545 1 109.50000 418.400000
6564 15617 7599 1 109.50000 418.400000
6564 15617 7998 1 109.50000 418.400000
7545 15617 7599 1 109.50000 418.400000
7545 15617 7998 1 109.50000 418.400000
7599 15617 7998 1 109.50000 418.400000
2119 15618 8387 1 109.50000 418.400000
2119 15618 8690 1 109.50000 418.400000
2119 15618 10641 1 109.50000 418.400000
8387 15618 8690 1 109.50000 418.400000
8387 15618 10641 1 109.50000 418.400000
8690 15618 10641 1 109.50000 418.400000
2056 15619 3636 1 109.50000 418.400000
2056 15619 8099 1 109.50000 418.400000
2056 15619 8101 1 109.50000 418.400000
3636 15619 8099 1 109.50000 418.400000
3636 15619 8101 1 109.50000 418.400000
8099 15619 8101 1 109.50000 418.400000
9199 15620 9595 1 109.50000 418.400000
9199 15620 9597 1 109.50000 418.400000
9199 15620 10643 1 109.50000 418.400000
9595 15620 9597 1 109.50000 418.400000
9595 15620 10643 1 109.50000 418.400000
9597 15620 10643 1 109.50000 418.400000
9200 15621 9871 1 109.50000 418.400000
9200 15621 9894 1 109.50000 418.400000
9200 15621 10531 1 109.50000 418.400000
9871 15621 9894 1 109.50000 418.400000
9871 15621 10531 1 109.50000 418.400000
9894 15621 10531 1 109.50000 418.400000
3033 15622 4759 1 109.50000 418.400000
3033 15622 10622 1 109.50000 418.400000
3033 15622 10662 1 109.50000 418.400000
4759 15622 10622 1 109.50000 418.400000
4759 15622 10662 1 109.50000 418.400000
10622 15622 10662 1 109.50000 418.400000
7752 15623 10460 1 109.50000 418.400000
7752 15623 10663 1 109.50000 418.400000
7752 15623 10992 1 109.50000 418.400000
10460 15623 10663 1 109.50000 418.400000
10460 15623 10992 1 109.50000 418.400000
10663 15623 10992 1 109.50000 418.400000
2737 15624 5238 1 109.50000 418.400000
2737 15624 5239 1 109.50000 418.400000
2737 15624 9820 1 109.50000 418.400000
5238 15624 5239 1 109.50000 418.400000
5238 15624 9820 1 109.50000 418.400000
5239 15624 9820 1 109.50000 418.400000
6644 15625 8276 1 109.50000 418.400000
6644 15625 9778 1 109.50000 418.400000
6644 15625 10838 1 109.50000 418.400000
8276 15625 9778 1 109.50000 418.400000
8276 15625 10838 1 109.50000 418.400000
9778 15625 10838 1 109.50000 418.400000
5886 15626 8266 1 109.50000 418.400000
5886 15626 10738 1 109.50000 418.400000
5886 15626 10993 1 109.50000 418.400000
8266 15626 10738 1 109.50000 418.400000
8266 15626 10993 1 109.50000 418.400000
10738 15626 10993 1 109.50000 418.400000
3314 15627 6979 1 109.50000 418.400000
3314 15627 8698 1 109.50000 418.400000
3314 15627 9409 1 109.50000 418.400000
6979 15627 8698 1 109.50000 418.400000
6979 15627 9409 1 109.50000 418.400000
8698 15627 9409 1 109.50000 418.400000
5850 15628 6958 1 109.50000 418.400000
5850 15628 10727 1 109.50000 418.400000
5850 15628 10994 1 109.50000 418.400000
6958 15628 10727 1 109.50000 418.400000
6958 15628 10994 1 109.50000 418.400000
10727 15628 10994 1 109.50000 418.400000
67 15629 1300 1 109.50000 418.400000
67 15629 6408 1 109.50000 418.400000
67 15629 10816 1 109.50000 418.400000
1300 15629 6408 1 109.50000 418.400000
1300 15629 10816 1 109.50000 418.400000
6408 15629 10816 1 109.50000 418.400000
182 15630 8148 1 109.50000 418.400000
182 15630 8149 1 109.50000 418.400000
182 15630 10970 1 109.50000 418.400000
8148 15630 8149 1 109.50000 418.400000
8148 15630 10970 1 109.50000 418.400000
8149 15630 10970 1 109.50000 418.400000
3085 15631 5476 1 109.50000 418.400000
3085 15631 5553 1 109.50000 418.400000
3085 15631 8907 1 109.50000 418.400000
5476 15631 5553 1 109.50000 418.400000
5476 15631 8907 1 109.50000 418.400000
5553 15631 8907 1 109.50000 418.400000
2113 15632 7148 1 109.50000 418.400000
2113 15632 9667 1 109.50000 418.400000
2113 15632 9920 1 109.50000 418.400000
7148 15632 9667 1 109.50000 418.400000
7148 15632 9920 1 109.50000 418.400000
9667 15632 9920 1 109.50000 418.400000
7917 15633 8894 1 109.50000 418.400000
7917 15633 9196 1 109.50000 418.400000
7917 15633 10434 1 109.50000 418.400000
8894 15633 9196 1 109.50000 418.400000
8894 15633 10434 1 109.50000 418.400000
9196 15633 10434 1 109.50000 418.400000
852 15634 7932 1 109.50000 418.400000
852 15634 9921 1 109.50000 418.400000
852 15634 10635 1 109.50000 418.400000
7932 15634 9921 1 109.50000 418.400000
7932 15634 10635 1 109.50000 418.400000
9921 15634 10635 1 109.50000 418.400000
5362 15635 6722 1 109.50000 418.400000
5362 15635 7263 1 109.50000 418.400000
5362 15635 10656 1 109.50000 418.400000
6722 15635 7263 1 109.50000 418.400000
6722 15635 10656 1 109.50000 418.400000
7263 15635 10656 1 109.50000 418.400000
3080 15636 8376 1 109.50000 418.400000
3080 15636 9345 1 109.50000 418.400000
3080 15636 10612 1 109.50000 418.400000
8376 15636 9345 1 109.50000 418.400000
8376 15636 10612 1 109.50000 418.400000
9345 15636 10612 1 109.50000 418.400000
7575 15637 9945 1 109.50000 418.400000
7575 15637 10018 1 109.50000 418.400000
7575 15637 10109 1 109.50000 418.400000
9945 15637 10018 1 109.50000 418.400000
9945 15637 10109 1 109.50000 418.400000
10018 15637 10109 1 109.50000 418.400000
730 15638 6566 1 109.50000 418.400000
730 15638 10067 1 109.50000 418.400000
730 15638 10996 1 109.50000 418.400000
6566 15638 10067 1 109.50000 418.400000
6566 15638 10996 1 109.50000 418.400000
10067 15638 10996 1 109.50000 418.400000
1488 15639 3765 1 109.50000 418.400000
1488 15639 10469 1 109.50000 418.400000
1488 15639 10997 1 109.50000 418.400000
3765 15639 10469 1 109.50000 418.400000
3765 15639 10997 1 109.50000 418.400000
10469 15639 10997 1 109.50000 418.400000
1637 15640 5766 1 109.50000 418.400000
1637 15640 5989 1 109.50000 418.400000
1637 15640 9182 1 109.50000 418.400000
5766 15640 5989 1 109.50000 418.400000
5766 15640 9182 1 109.50000 418.400000
5989 15640 9182 1 109.50000 418.400000
4339 15641 9625 1 109.50000 418.400000
4339 15641 10427 1 109.50000 418.400000
4339 15641 10820 1 109.50000 418.400000
9625 15641 10427 1 109.50000 418.400000
9625 15641 10820 1 109.50000 418.400000
10427 15641 10820 1 109.50000 418.400000
4380 15642 5548 1 109.50000 418.400000
4380 15642 9705 1 109.50000 418.400000
4380 15642 9707 1 109.50000 418.400000
5548 15642 9705 1 109.50000 418.400000
5548 15642 9707 1 109.50000 418.400000
9705 15642 9707 1 109.50000 418.400000
1183 15643 6799 1 109.50000 418.400000
1183 15643 7163 1 109.50000 418.400000
1183 15643 10977 1 109.50000 418.400000
6799 15643 7163 1 109.50000 418.400000
6799 15643 10977 1 109.50000 418.400000
7163 15643 10977 1 109.50000 418.400000
4190 15644 7090 1 109.50000 418.400000
4190 15644 7634 1 109.50000 418.400000
4190 15644 10599 1 109.50000 418.400000
7090 15644 7634 1 109.50000 418.400000
7090 15644 10599 1 109.50000 418.400000
7634 15644 10599 1 109.50000 418.400000
4217 15645 6060 1 109.50000 418.400000
4217 15645 10735 1 109.50000 418.400000
4217 15645 10998 1 109.50000 418.400000
6060 15645 10735 1 109.50000 418.400000
6060 15645 10998 1 109.50000 418.400000
10735 15645 10998 1 109.50000 418.400000
100 15646 4258 1 109.50000 418.400000
100 15646 7890 1 109.50000 418.400000
100 15646 9996 1 109.50000 418.400000
4258 15646 7890 1 109.50000 418.400000
4258 15646 9996 1 109.50000 418.400000
7890 15646 9996 1 109.50000 418.400000
5289 15647 7853 1 109.50000 418.400000
5289 15647 10999 1 109.50000 418.400000
5289 15647 11000 1 109.50000 418.400000
7853 15647 10999 1 109.50000 418.400000
7853 15647 11000 1 109.50000 418.400000
10999 15647 11000 1 109.50000 418.400000
7047 15648 7541 1 109.50000 418.400000
7047 15648 11001 1 109.50000 418.400000
7047 15648 11002 1 109.50000 418.400000
7541 15648 11001 1 109.50000 418.400000
7541 15648 11002 1 109.50000 418.400000
11001 15648 11002 1 109.50000 418.400000
1179 15649 5263 1 109.50000 418.400000
1179 15649 5636 1 109.50000 418.400000
1179 15649 7160 1 109.50000 418.400000
5263 15649 5636 1 109.50000 418.400000
5263 15649 7160 1 109.50000 418.400000
5636 15649 7160 1 109.50000 418.400000
2409 15650 4398 1 109.50000 418.400000
2409 15650 11003 1 109.50000 418.400000
2409 15650 11004 1 109.50000 418.400000
4398 15650 11003 1 109.50000 418.400000
4398 15650 11004 1 109.50000 418.400000
11003 15650 11004 1 109.50000 418.400000
5244 15651 6271 1 109.50000 418.400000
5244 15651 9675 1 109.50000 418.400000
5244 15651 10204 1 109.50000 418.400000
6271 15651 9675 1 109.50000 418.400000
6271 15651 10204 1 109.50000 418.400000
9675 15651 10204 1 109.50000 418.400000
901 15652 4360 1 109.50000 418.400000
901 15652 6944 1 109.50000 418.400000
901 15652 8640 1 109.50000 418.400000
4360 15652 6944 1 109.50000 418.400000
4360 15652 8640 1 109.50000 418.400000
6944 15652 8640 1 109.50000 418.400000
6432 15653 8889 1 109.50000 418.400000
6432 15653 9221 1 109.50000 418.400000
6432 15653 9786 1 109.50000 418.400000
8889 15653 9221 1 109.50000 418.400000
8889 15653 9786 1 109.50000 418.400000
9221 15653 9786 1 109.50000 418.400000
231 15654 6718 1 109.50000 418.400000
231 15654 9372 1 109.50000 418.400000
231 15654 10016 1 109.50000 418.400000
6718 15654 9372 1 109.50000 418.400000
6718 15654 10016 1 109.50000 418.400000
9372 15654 10016 1 109.50000 418.400000
1784 15655 2536 1 109.50000 418.400000
1784 15655 4410 1 109.50000 418.400000
1784 15655 4757 1 109.50000 418.400000
2536 15655 4410 1 109.50000 418.400000
2536 15655 4757 1 109.50000 418.400000
4410 15655 4757 1 109.50000 418.400000
1728 15656 9257 1 109.50000 418.400000
1728 15656 9435 1 109.50000 418.400000
1728 15656 9726 1 109.50000 418.400000
9257 15656 9435 1 109.50000 418.400000
9257 15656 9726 1 109.50000 418.400000
9435 15656 9726 1 109.50000 418.400000
1700 15657 3399 1 109.50000 418.400000
1700 15657 10535 1 109.50000 418.400000
1700 15657 11005 1 109.50000 418.400000
3399 15657 10535 1 109.50000 418.400000
3399 15657 11005 1 109.50000 418.400000
10535 15657 11005 1 109.50000 418.400000
6680 15658 7140 1 109.50000 418.400000
6680 15658 10926 1 109.50000 418.400000
6680 15658 10928 1 109.50000 418.400000
7140 15658 10926 1 109.50000 418.400000
7140 15658 10928 1 109.50000 418.400000
10926 15658 10928 1 109.50000 418.400000
3795 15659 4990 1 109.50000 418.400000
3795 15659 8824 1 109.50000 418.400000
3795 15659 10962 1 109.50000 418.400000
4990 15659 8824 1 109.50000 418.400000
4990 15659 10962 1 109.50000 418.400000
8824 15659 10962 1 109.50000 418.400000
2259 15660 5129 1 109.50000 418.400000
2259 15660 7335 1 109.50000 418.400000
2259 15660 9294 1 109.50000 418.400000
5129 15660 7335 1 109.50000 418.400000
5129 15660 9294 1 109.50000 418.400000
7335 15660 9294 1 109.50000 418.400000
2198 15661 3711 1 109.50000 418.400000
2198 15661 6114 1 109.50000 418.400000
2198 15661 10275 1 109.50000 418.400000
3711 15661 6114 1 109.50000 418.400000
3711 15661 10275 1 109.50000 418.400000
6114 15661 10275 1 109.50000 418.400000
4852 15662 8378 1 109.50000 418.400000
4852 15662 8933 1 109.50000 418.400000
4852 15662 9279 1 109.50000 418.400000
8378 15662 8933 1 109.50000 418.400000
8378 15662 9279 1 109.50000 418.400000
8933 15662 9279 1 109.50000 418.400000
8429 15663 11007 1 109.50000 418.400000
8429 15663 11008 1 109.50000 418.400000
8429 15663 11196 1 109.50000 418.400000
11007 15663 11008 1 109.50000 418.400000
11007 15663 11196 1 109.50000 418.400000
11008 15663 11196 1 109.50000 418.400000
1293 15664 8472 1 109.50000 418.400000
1293 15664 9646 1 109.50000 418.400000
1293 15664 10563 1 109.50000 418.400000
8472 15664 9646 1 109.50000 418.400000
8472 15664 10563 1 109.50000 418.400000
9646 15664 10563 1 109.50000 418.400000
789 15665 1245 1 109.50000 418.400000
789 15665 10484 1 109.50000 418.400000
789 15665 10955 1 109.50000 418.400000
1245 15665 10484 1 109.50000 418.400000
1245 15665 10955 1 109.50000 418.400000
10484 15665 10955 1 109.50000 418.400000
5058 15666 9500 1 109.50000 418.400000
5058 15666 9650 1 109.50000 418.400000
5058 15666 10758 1 109.50000 418.400000
9500 15666 9650 1 109.50000 418.400000
9500 15666 10758 1 109.50000 418.400000
9650 15666 10758 1 109.50000 418.400000
6091 15667 8522 1 109.50000 418.400000
6091 15667 8902 1 109.50000 418.400000
6091 15667 10925 1 109.50000 418.400000
8522 15667 8902 1 109.50000 418.400000
8522 15667 10925 1 109.50000 418.400000
8902 15667 10925 1 109.50000 418.400000
2354 15668 6078 1 109.50000 418.400000
2354 15668 9913 1 109.50000 418.400000
2354 15668 10969 1 109.50000 418.400000
6078 15668 9913 1 109.50000 418.400000
6078 15668 10969 1 109.50000 418.400000
9913 15668 10969 1 109.50000 418.400000
2518 15669 3100 1 109.50000 418.400000
2518 15669 10950 1 109.50000 418.400000
2518 15669 11208 1 109.50000 418.400000
3100 15669 10950 1 109.50000 418.400000
3100 15669 11208 1 109.50000 418.400000
10950 15669 11208 1 109.50000 418.400000
4416 15670 8402 1 109.50000 418.400000
4416 15670 10187 1 109.50000 418.400000
4416 15670 10435 1 109.50000 418.400000
8402 15670 10187 1 109.50000 418.400000
8402 15670 10435 1 109.50000 418.400000
10187 15670 10435 1 109.50000 418.400000
5080 15671 7318 1 109.50000 418.400000
5080 15671 8888 1 109.50000 418.400000
5080 15671 10543 1 109.50000 418.400000
7318 15671 8888 1 109.50000 418.400000
7318 15671 10543 1 109.50000 418.400000
8888 15671 10543 1 109.50000 418.400000
4899 15672 10466 1 109.50000 418.400000
4899 15672 10523 1 109.50000 418.400000
4899 15672 11010 1 109.50000 418.400000
10466 15672 10523 1 109.50000 418.400000
10466 15672 11010 1 109.50000 418.400000
10523 15672 11010 1 109.50000 418.400000
998 15673 2402 1 109.50000 418.400000
998 15673 8006 1 109.50000 418.400000
998 15673 9185 1 109.50000 418.400000
2402 15673 8006 1 109.50000 418.400000
2402 15673 9185 1 109.50000 418.400000
8006 15673 9185 1 109.50000 418.400000
8574 15674 8583 1 109.50000 418.400000
8574 15674 9543 1 109.50000 418.400000
8574 15674 10905 1 109.50000 418.400000
8583 15674 9543 1 109.50000 418.400000
8583 15674 10905 1 109.50000 418.400000
9543 15674 10905 1 109.50000 418.400000
2599 15675 5100 1 109.50000 418.400000
2599 15675 11011 1 109.50000 418.400000
2599 15675 11072 1 109.50000 418.400000
5100 15675 11011 1 109.50000 418.400000
5100 15675 11072 1 109.50000 418.400000
11011 15675 11072 1 109.50000 418.400000
879 15676 5096 1 109.50000 418.400000
879 15676 7642 1 109.50000 418.400000
879 15676 10136 1 109.50000 418.400000
5096 15676 7642 1 109.50000 418.400000
5096 15676 10136 1 109.50000 418.400000
7642 15676 10136 1 109.50000 418.400000
1967 15677 4386 1 109.50000 418.400000
1967 15677 8123 1 109.50000 418.400000
1967 15677 9794 1 109.50000 418.400000
4386 15677 8123 1 109.50000 418.400000
4386 15677 9794 1 109.50000 418.400000
8123 15677 9794 1 109.50000 418.400000
548 15678 1880 1 109.50000 418.400000
548 15678 3857 1 109.50000 418.400000
548 15678 11012 1 109.50000 418.400000
1880 15678 3857 1 109.50000 418.400000
1880 15678 11012 1 109.50000 418.400000
3857 15678 11012 1 109.50000 418.400000
2242 15679 9120 1 109.50000 418.400000
2242 15679 10927 1 109.50000 418.400000
2242 15679 11013 1 109.50000 418.400000
9120 15679 10927 1 109.50000 418.400000
9120 15679 11013 1 109.50000 418.400000
10927 15679 11013 1 109.50000 418.400000
5366 15680 5725 1 109.50000 418.400000
5366 15680 10980 1 109.50000 418.400000
5366 15680 11014 1 109.50000 418.400000
5725 15680 10980 1 109.50000 418.400000
5725 15680 11014 1 109.50000 418.400000
10980 15680 11014 1 109.50000 418.400000
5632 15681 5633 1 109.50000 418.400000
5632 15681 10169 1 109.50000 418.400000
5632 15681 11015 1 109.50000 418.400000
5633 15681 10169 1 109.50000 418.400000
5633 15681 11015 1 109.50000 418.400000
10169 15681 11015 1 109.50000 418.400000
2006 15682 7362 1 109.50000 418.400000
2006 15682 7915 1 109.50000 418.400000
2006 15682 11016 1 109.50000 418.400000
7362 15682 7915 1 109.50000 418.400000
7362 15682 11016 1 109.50000 418.400000
7915 15682 11016 1 109.50000 418.400000
1403 15683 4357 1 109.50000 418.400000
1403 15683 10739 1 109.50000 418.400000
1403 15683 10930 1 109.50000 418.400000
4357 15683 10739 1 109.50000 418.400000
4357 15683 10930 1 109.50000 418.400000
10739 15683 10930 1 109.50000 418.400000
9604 15684 10163 1 109.50000 418.400000
9604 15684 11018 1 109.50000 418.400000
9604 15684 11019 1 109.50000 418.400000
10163 15684 11018 1 109.50000 418.400000
10163 15684 11019 1 109.50000 418.400000
11018 15684 11019 1 109.50000 418.400000
6848 15685 7155 1 109.50000 418.400000
6848 15685 10697 1 109.50000 418.400000
6848 15685 10952 1 109.50000 418.400000
7155 15685 10697 1 109.50000 418.400000
7155 15685 10952 1 109.50000 418.400000
10697 15685 10952 1 109.50000 418.400000
661 15686 1304 1 109.50000 418.400000
661 15686 7350 1 109.50000 418.400000
661 15686 10338 1 109.50000 418.400000
1304 15686 7350 1 109.50000 418.400000
1304 15686 10338 1 109.50000 418.400000
7350 15686 10338 1 109.50000 418.400000
3021 15687 7052 1 109.50000 418.400000
3021 15687 9781 1 109.50000 418.400000
3021 15687 9930 1 109.50000 418.400000
7052 15687 9781 1 109.50000 418.400000
7052 15687 9930 1 109.50000 418.400000
9781 15687 9930 1 109.50000 418.400000
7091 15688 7092 1 109.50000 418.400000
7091 15688 8208 1 109.50000 418.400000
7091 15688 10301 1 109.50000 418.400000
7092 15688 8208 1 109.50000 418.400000
7092 15688 10301 1 109.50000 418.400000
8208 15688 10301 1 109.50000 418.400000
5699 15689 8064 1 109.50000 418.400000
5699 15689 10372 1 109.50000 418.400000
5699 15689 10936 1 109.50000 418.400000
8064 15689 10372 1 109.50000 418.400000
8064 15689 10936 1 109.50000 418.400000
10372 15689 10936 1 109.50000 418.400000
919 15690 2926 1 109.50000 418.400000
919 15690 9611 1 109.50000 418.400000
919 15690 10260 1 109.50000 418.400000
2926 15690 9611 1 109.50000 418.400000
2926 15690 10260 1 109.50000 418.400000
9611 15690 10260 1 109.50000 418.400000
8274 15691 8943 1 109.50000 418.400000
8274 15691 10730 1 109.50000 418.400000
8274 15691 11020 1 109.50000 418.400000
8943 15691 10730 1 109.50000 418.400000
8943 15691 11020 1 109.50000 418.400000
10730 15691 11020 1 109.50000 418.400000
5695 15692 8490 1 109.50000 418.400000
5695 15692 10319 1 109.50000 418.400000
5695 15692 11022 1 109.50000 418.400000
8490 15692 10319 1 109.50000 418.400000
8490 15692 11022 1 109.50000 418.400000
10319 15692 11022 1 109.50000 418.400000
183 15693 9733 1 109.50000 418.400000
183 15693 10364 1 109.50000 418.400000
183 15693 11023 1 109.50000 418.400000
9733 15693 10364 1 109.50000 418.400000
9733 15693 11023 1 109.50000 418.400000
10364 15693 11023 1 109.50000 418.400000
7108 15694 7789 1 109.50000 418.400000
7108 15694 10915 1 109.50000 418.400000
7108 15694 10966 1 109.50000 418.400000
7789 15694 10915 1 109.50000 418.400000
7789 15694 10966 1 109.50000 418.400000
10915 15694 10966 1 109.50000 418.400000
585 15695 2153 1 109.50000 418.400000
585 15695 2204 1 109.50000 418.400000
585 15695 2820 1 109.50000 418.400000
2153 15695 2204 1 109.50000 418.400000
2153 15695 2820 1 109.50000 418.400000
2204 15695 2820 1 109.50000 418.400000
4585 15696 7277 1 109.50000 418.400000
4585 15696 7279 1 109.50000 418.400000
4585 15696 10346 1 109.50000 418.400000
7277 15696 7279 1 109.50000 418.400000
7277 15696 10346 1 109.50000 418.400000
7279 15696 10346 1 109.50000 418.400000
2430 15697 2946 1 109.50000 418.400000
2430 15697 4298 1 109.50000 418.400000
2430 15697 7417 1 109.50000 418.400000
2946 15697 4298 1 109.50000 418.400000
2946 15697 7417 1 109.50000 418.400000
4298 15697 7417 1 109.50000 418.400000
115 15698 4165 1 109.50000 418.400000
115 15698 8098 1 109.50000 418.400000
115 15698 10208 1 109.50000 418.400000
4165 15698 8098 1 109.50000 418.400000
4165 15698 10208 1 109.50000 418.400000
8098 15698 10208 1 109.50000 418.400000
2742 15699 9553 1 109.50000 418.400000
2742 15699 11024 1 109.50000 418.400000
2742 15699 11025 1 109.50000 418.400000
9553 15699 11024 1 109.50000 418.400000
9553 15699 11025 1 109.50000 418.400000
11024 15699 11025 1 109.50000 418.400000
5755 15700 6206 1 109.50000 418.400000
5755 15700 9536 1 109.50000 418.400000
5755 15700 11026 1 109.50000 418.400000
6206 15700 9536 1 109.50000 418.400000
6206 15700 11026 1 109.50000 418.400000
9536 15700 11026 1 109.50000 418.400000
7473 15701 8803 1 109.50000 418.400000
7473 15701 10091 1 109.50000 418.400000
7473 15701 10871 1 109.50000 418.400000
8803 15701 10091 1 109.50000 418.400000
8803 15701 10871 1 109.50000 418.400000
10091 15701 10871 1 109.50000 418.400000
7060 15702 7649 1 109.50000 418.400000
7060 15702 9462 1 109.50000 418.400000
7060 15702 10458 1 109.50000 418.400000
7649 15702 9462 1 109.50000 418.400000
7649 15702 10458 1 109.50000 418.400000
9462 15702 10458 1 109.50000 418.400000
7586 15703 9111 1 109.50000 418.400000
7586 15703 10442 1 109.50000 418.400000
7586 15703 10607 1 109.50000 418.400000
9111 15703 10442 1 109.50000 418.400000
9111 15703 10607 1 109.50000 418.400000
10442 15703 10607 1 109.50000 418.400000
7924 15704 8988 1 109.50000 418.400000
7924 15704 10490 1 109.50000 418.400000
7924 15704 11027 1 109.50000 418.400000
8988 15704 10490 1 109.50000 418.400000
8988 15704 11027 1 109.50000 418.400000
10490 15704 11027 1 109.50000 418.400000
7411 15705 8403 1 109.50000 418.400000
7411 15705 9134 1 109.50000 418.400000
7411 15705 10305 1 109.50000 418.400000
8403 15705 9134 1 109.50000 418.400000
8403 15705 10305 1 109.50000 418.400000
9134 15705 10305 1 109.50000 418.400000
1930 15706 9177 1 109.50000 418.400000
1930 15706 10318 1 109.50000 418.400000
1930 15706 11028 1 109.50000 418.400000
9177 15706 10318 1 109.50000 418.400000
9177 15706 11028 1 109.50000 418.400000
10318 15706 11028 1 109.50000 418.400000
7472 15707 7895 1 109.50000 418.400000
7472 15707 11029 1 109.50000 418.400000
7472 15707 11030 1 109.50000 418.400000
7895 15707 11029 1 109.50000 418.400000
7895 15707 11030 1 109.50000 418.400000
11029 15707 11030 1 109.50000 418.400000
9108 15708 10483 1 109.50000 418.400000
9108 15708 10498 1 109.50000 418.400000
9108 15708 11031 1 109.50000 418.400000
10483 15708 10498 1 109.50000 418.400000
10483 15708 11031 1 109.50000 418.400000
10498 15708 11031 1 109.50000 418.400000
2086 15709 9664 1 109.50000 418.400000
2086 15709 10655 1 109.50000 418.400000
2086 15709 10770 1 109.50000 418.400000
9664 15709 10655 1 109.50000 418.400000
9664 15709 10770 1 109.50000 418.400000
10655 15709 10770 1 109.50000 418.400000
1871 15710 6659 1 109.50000 418.400000
1871 15710 7015 1 109.50000 418.400000
1871 15710 7723 1 109.50000 418.400000
6659 15710 7015 1 109.50000 418.400000
6659 15710 7723 1 109.50000 418.400000
7015 15710 7723 1 109.50000 418.400000
110 15711 1198 1 109.50000 418.400000
110 15711 4754 1 109.50000 418.400000
110 15711 4755 1 109.50000 418.400000
1198 15711 4754 1 109.50000 418.400000
1198 15711 4755 1 109.50000 418.400000
4754 15711 4755 1 109.50000 418.400000
5867 15712 10177 1 109.50000 418.400000
5867 15712 10520 1 109.50000 418.400000
5867 15712 10893 1 109.50000 418.400000
10177 15712 10520 1 109.50000 418.400000
10177 15712 10893 1 109.50000 418.400000
10520 15712 10893 1 109.50000 418.400000
3742 15713 8121 1 109.50000 418.400000
3742 15713 11012 1 109.50000 418.400000
3742 15713 11033 1 109.50000 418.400000
8121 15713 11012 1 109.50000 418.400000
8121 15713 11033 1 109.50000 418.400000
11012 15713 11033 1 109.50000 418.400000
1614 15714 6305 1 109.50000 418.400000
1614 15714 6993 1 109.50000 418.400000
1614 15714 10751 1 109.50000 418.400000
6305 15714 6993 1 109.50000 418.400000
6305 15714 10751 1 109.50000 418.400000
6993 15714 10751 1 109.50000 418.400000
7874 15715 10144 1 109.50000 418.400000
7874 15715 10462 1 109.50000 418.400000
7874 15715 10831 1 109.50000 418.400000
10144 15715 10462 1 109.50000 418.400000
10144 15715 10831 1 109.50000 418.400000
10462 15715 10831 1 109.50000 418.400000
2106 15716 5597 1 109.50000 418.400000
2106 15716 7319 1 109.50000 418.400000
2106 15716 10856 1 109.50000 418.400000
5597 15716 7319 1 109.50000 418.400000
5597 15716 10856 1 109.50000 418.400000
7319 15716 10856 1 109.50000 418.400000
4176 15717 5339 1 109.50000 418.400000
4176 15717 9155 1 109.50000 418.400000
4176 15717 10693 1 109.50000 418.400000
5339 15717 9155 1 109.50000 418.400000
5339 15717 10693 1 109.50000 418.400000
9155 15717 10693 1 109.50000 418.400000
1932 15718 3611 1 109.50000 418.400000
1932 15718 9101 1 109.50000 418.400000
1932 15718 10999 1 109.50000 418.400000
3611 15718 9101 1 109.50000 418.400000
3611 15718 10999 1 109.50000 418.400000
9101 15718 10999 1 109.50000 418.400000
2904 15719 7294 1 109.50000 418.400000
2904 15719 8561 1 109.50000 418.400000
2904 15719 10061 1 109.50000 418.400000
7294 15719 8561 1 109.50000 418.400000
7294 15719 10061 1 109.50000 418.400000
8561 15719 10061 1 109.50000 418.400000
165 15720 2621 1 109.50000 418.400000
165 15720 3505 1 109.50000 418.400000
165 15720 10182 1 109.50000 418.400000
2621 15720 3505 1 109.50000 418.400000
2621 15720 10182 1 109.50000 418.400000
3505 15720 10182 1 109.50000 418.400000
6118 15721 8756 1 109.50000 418.400000
6118 15721 9208 1 109.50000 418.400000
6118 15721 11034 1 109.50000 418.400000
8756 15721 9208 1 109.50000 418.400000
8756 15721 11034 1 109.50000 418.400000
9208 15721 11034 1 109.50000 418.400000
1853 15722 6289 1 109.50000 418.400000
1853 15722 6316 1 109.50000 418.400000
1853 15722 10883 1 109.50000 418.400000
6289 15722 6316 1 109.50000 418.400000
6289 15722 10883 1 109.50000 418.400000
6316 15722 10883 1 109.50000 418.400000
1323 15723 1342 1 109.50000 418.400000
1323 15723 2830 1 109.50000 418.400000
1323 15723 9036 1 109.50000 418.400000
1342 15723 2830 1 109.50000 418.400000
1342 15723 9036 1 109.50000 418.400000
2830 15723 9036 1 109.50000 418.400000
5702 15724 8566 1 109.50000 418.400000
5702 15724 9367 1 109.50000 418.400000
5702 15724 10890 1 109.50000 418.400000
8566 15724 9367 1 109.50000 418.400000
8566 15724 10890 1 109.50000 418.400000
9367 15724 10890 1 109.50000 418.400000
1157 15725 1468 1 109.50000 418.400000
1157 15725 8843 1 109.50000 418.400000
1157 15725 10143 1 109.50000 418.400000
1468 15725 8843 1 109.50000 418.400000
1468 15725 10143 1 109.50000 418.400000
8843 15725 10143 1 109.50000 418.400000
6570 15726 8267 1 109.50000 418.400000
6570 15726 9478 1 109.50000 418.400000
6570 15726 11004 1 109.50000 418.400000
8267 15726 9478 1 109.50000 418.400000
8267 15726 11004 1 109.50000 418.400000
9478 15726 11004 1 109.50000 418.400000
1521 15727 10452 1 109.50000 418.400000
1521 15727 10879 1 109.50000 418.400000
1521 15727 11035 1 109.50000 418.400000
10452 15727 10879 1 109.50000 418.400000
10452 15727 11035 1 109.50000 418.400000
10879 15727 11035 1 109.50000 418.400000
3671 15728 3763 1 109.50000 418.400000
3671 15728 4800 1 109.50000 418.400000
3671 15728 9444 1 109.50000 418.400000
3763 15728 4800 1 109.50000 418.400000
3763 15728 9444 1 109.50000 418.400000
4800 15728 9444 1 109.50000 418.400000
1310 15729 3155 1 109.50000 418.400000
1310 15729 7965 1 109.50000 418.400000
1310 15729 11036 1 109.50000 418.400000
3155 15729 7965 1 109.50000 418.400000
3155 15729 11036 1 109.50000 418.400000
7965 15729 11036 1 109.50000 418.400000
7639 15730 9055 1 109.50000 418.400000
7639 15730 9587 1 109.50000 418.400000
7639 15730 10679 1 109.50000 418.400000
9055 15730 9587 1 109.50000 418.400000
9055 15730 10679 1 109.50000 418.400000
9587 15730 10679 1 109.50000 418.400000
913 15731 8250 1 109.50000 418.400000
913 15731 10236 1 109.50000 418.400000
913 15731 11037 1 109.50000 418.400000
8250 15731 10236 1 109.50000 418.400000
8250 15731 11037 1 109.50000 418.400000
10236 15731 11037 1 109.50000 418.400000
2724 15732 4970 1 109.50000 418.400000
2724 15732 8598 1 109.50000 418.400000
2724 15732 9599 1 109.50000 418.400000
4970 15732 8598 1 109.50000 418.400000
4970 15732 9599 1 109.50000 418.400000
8598 15732 9599 1 109.50000 418.400000
607 15733 7211 1 109.50000 418.400000
607 15733 8921 1 109.50000 418.400000
607 15733 11038 1 109.50000 418.400000
7211 15733 8921 1 109.50000 418.400000
7211 15733 11038 1 109.50000 418.400000
8921 15733 11038 1 109.50000 418.400000
23 15734 10199 1 109.50000 418.400000
23 15734 10685 1 109.50000 418.400000
23 15734 10971 1 109.50000 418.400000
10199 15734 10685 1 109.50000 418.400000
10199 15734 10971 1 109.50000 418.400000
10685 15734 10971 1 109.50000 418.400000
1721 15735 5573 1 109.50000 418.400000
1721 15735 8732 1 109.50000 418.400000
1721 15735 10064 1 109.50000 418.400000
5573 15735 8732 1 109.50000 418.400000
5573 15735 10064 1 109.50000 418.400000
8732 15735 10064 1 109.50000 418.400000
6031 15736 6032 1 109.50000 418.400000
6031 15736 6494 1 109.50000 418.400000
6031 15736 10495 1 109.50000 418.400000
6032 15736 6494 1 109.50000 418.400000
6032 15736 10495 1 109.50000 418.400000
6494 15736 10495 1 109.50000 418.400000
2262 15737 8745 1 109.50000 418.400000
2262 15737 9373 1 109.50000 418.400000
2262 15737 10308 1 109.50000 418.400000
8745 15737 9373 1 109.50000 418.400000
8745 15737 10308 1 109.50000 418.400000
9373 15737 10308 1 109.50000 418.400000
1024 15738 1908 1 109.50000 418.400000
1024 15738 4101 1 109.50000 418.400000
1024 15738 10728 1 109.50000 418.400000
1908 15738 4101 1 109.50000 418.400000
1908 15738 10728 1 109.50000 418.400000
4101 15738 10728 1 109.50000 418.400000
233 15739 3059 1 109.50000 418.400000
233 15739 4478 1 109.50000 418.400000
233 15739 10185 1 109.50000 418.400000
3059 15739 4478 1 109.50000 418.400000
3059 15739 10185 1 109.50000 418.400000
4478 15739 10185 1 109.50000 418.400000
2539 15740 4469 1 109.50000 418.400000
2539 15740 10958 1 109.50000 418.400000
2539 15740 11039 1 109.50000 418.400000
4469 15740 10958 1 109.50000 418.400000
4469 15740 11039 1 109.50000 418.400000
10958 15740 11039 1 109.50000 418.400000
7130 15741 8470 1 109.50000 418.400000
7130 15741 8990 1 109.50000 418.400000
7130 15741 10946 1 109.50000 418.400000
8470 15741 8990 1 109.50000 418.400000
8470 15741 10946 1 109.50000 418.400000
8990 15741 10946 1 109.50000 418.400000
5635 15742 5805 1 109.50000 418.400000
5635 15742 10473 1 109.50000 418.400000
5635 15742 10810 1 109.50000 418.400000
5805 15742 10473 1 109.50000 418.400000
5805 15742 10810 1 109.50000 418.400000
10473 15742 10810 1 109.50000 418.400000
3159 15743 6420 1 109.50000 418.400000
3159 15743 7240 1 109.50000 418.400000
3159 15743 7241 1 109.50000 418.400000
6420 15743 7240 1 109.50000 418.400000
6420 15743 7241 1 109.50000 418.400000
7240 15743 7241 1 109.50000 418.400000
2129 15744 3870 1 109.50000 418.400000
2129 15744 4465 1 109.50000 418.400000
2129 15744 8486 1 109.50000 418.400000
3870 15744 4465 1 109.50000 418.400000
3870 15744 8486 1 109.50000 418.400000
4465 15744 8486 1 109.50000 418.400000
1509 15745 5818 1 109.50000 418.400000
1509 15745 10387 1 109.50000 418.400000
1509 15745 10885 1 109.50000 418.400000
5818 15745 10387 1 109.50000 418.400000
5818 15745 10885 1 109.50000 418.400000
10387 15745 10885 1 109.50000 418.400000
4316 15746 5316 1 109.50000 418.400000
4316 15746 6284 1 109.50000 418.400000
4316 15746 8992 1 109.50000 418.400000
5316 15746 6284 1 109.50000 418.400000
5316 15746 8992 1 109.50000 418.400000
6284 15746 8992 1 109.50000 418.400000
4022 15747 4025 1 109.50000 418.400000
4022 15747 9388 1 109.50000 418.400000
4022 15747 11040 1 109.50000 418.400000
4025 15747 9388 1 109.50000 418.400000
4025 15747 11040 1 109.50000 418.400000
9388 15747 11040 1 109.50000 418.400000
4505 15748 8126 1 109.50000 418.400000
4505 15748 8270 1 109.50000 418.400000
4505 15748 8495 1 109.50000 418.400000
8126 15748 8270 1 109.50000 418.400000
8126 15748 8495 1 109.50000 418.400000
8270 15748 8495 1 109.50000 418.400000
179 15749 4317 1 109.50000 418.400000
179 15749 8773 1 109.50000 418.400000
179 15749 10777 1 109.50000 418.400000
4317 15749 8773 1 109.50000 418.400000
4317 15749 10777 1 109.50000 418.400000
8773 15749 10777 1 109.50000 418.400000
3861 15750 10761 1 109.50000 418.400000
3861 15750 10924 1 109.50000 418.400000
3861 15750 10963 1 109.50000 418.400000
10761 15750 10924 1 109.50000 418.400000
10761 15750 10963 1 109.50000 418.400000
10924 15750 10963 1 109.50000 418.400000
4695 15751 9933 1 109.50000 418.400000
4695 15751 11041 1 109.50000 418.400000
4695 15751 11042 1 109.50000 418.400000
9933 15751 11041 1 109.50000 418.400000
9933 15751 11042 1 109.50000 418.400000
11041 15751 11042 1 109.50000 418.400000
4763 15752 5742 1 109.50000 418.400000
4763 15752 5744 1 109.50000 418.400000
4763 15752 9888 1 109.50000 418.400000
5742 15752 5744 1 109.50000 418.400000
5742 15752 9888 1 109.50000 418.400000
5744 15752 9888 1 109.50000 418.400000
2346 15753 4641 1 109.50000 418.400000
2346 15753 6227 1 109.50000 418.400000
2346 15753 7082 1 109.50000 418.400000
4641 15753 6227 1 109.50000 418.400000
4641 15753 7082 1 109.50000 418.400000
6227 15753 7082 1 109.50000 418.400000
1933 15754 10313 1 109.50000 418.400000
1933 15754 10721 1 109.50000 418.400000
1933 15754 10746 1 109.50000 418.400000
10313 15754 10721 1 109.50000 418.400000
10313 15754 10746 1 109.50000 418.400000
10721 15754 10746 1 109.50000 418.400000
309 15755 938 1 109.50000 418.400000
309 15755 11003 1 109.50000 418.400000
309 15755 11222 1 109.50000 418.400000
938 15755 11003 1 109.50000 418.400000
938 15755 11222 1 109.50000 418.400000
11003 15755 11222 1 109.50000 418.400000
964 15756 4784 1 109.50000 418.400000
964 15756 5898 1 109.50000 418.400000
964 15756 11043 1 109.50000 418.400000
4784 15756 5898 1 109.50000 418.400000
4784 15756 11043 1 109.50000 418.400000
5898 15756 11043 1 109.50000 418.400000
819 15757 6030 1 109.50000 418.400000
819 15757 9470 1 109.50000 418.400000
819 15757 10826 1 109.50000 418.400000
6030 15757 9470 1 109.50000 418.400000
6030 15757 10826 1 109.50000 418.400000
9470 15757 10826 1 109.50000 418.400000
2057 15758 4117 1 109.50000 418.400000
2057 15758 10343 1 109.50000 418.400000
2057 15758 10613 1 109.50000 418.400000
4117 15758 10343 1 109.50000 418.400000
4117 15758 10613 1 109.50000 418.400000
10343 15758 10613 1 109.50000 418.400000
8647 15759 10085 1 109.50000 418.400000
8647 15759 10303 1 109.50000 418.400000
8647 15759 11045 1 109.50000 418.400000
10085 15759 10303 1 109.50000 418.400000
10085 15759 11045 1 109.50000 418.400000
10303 15759 11045 1 109.50000 418.400000
4725 15760 7388 1 109.50000 418.400000
4725 15760 10070 1 109.50000 418.400000
4725 15760 10210 1 109.50000 418.400000
7388 15760 10070 1 109.50000 418.400000
7388 15760 10210 1 109.50000 418.400000
10070 15760 10210 1 109.50000 418.400000
5928 15761 7858 1 109.50000 418.400000
5928 15761 7896 1 109.50000 418.400000
5928 15761 8295 1 109.50000 418.400000
7858 15761 7896 1 109.50000 418.400000
7858 15761 8295 1 109.50000 418.400000
7896 15761 8295 1 109.50000 418.400000
6304 15762 10619 1 109.50000 418.400000
6304 15762 11046 1 109.50000 418.400000
6304 15762 11047 1 109.50000 418.400000
10619 15762 11046 1 109.50000 418.400000
10619 15762 11047 1 109.50000 418.400000
11046 15762 11047 1 109.50000 418.400000
1915 15763 6291 1 109.50000 418.400000
1915 15763 8446 1 109.50000 418.400000
1915 15763 10794 1 109.50000 418.400000
6291 15763 8446 1 109.50000 418.400000
6291 15763 10794 1 109.50000 418.400000
8446 15763 10794 1 109.50000 418.400000
9928 15764 10702 1 109.50000 418.400000
9928 15764 10745 1 109.50000 418.400000
9928 15764 11048 1 109.50000 418.400000
10702 15764 10745 1 109.50000 418.400000
10702 15764 11048 1 109.50000 418.400000
10745 15764 11048 1 109.50000 418.400000
3494 15765 5449 1 109.50000 418.400000
3494 15765 8321 1 109.50000 418.400000
3494 15765 11049 1 109.50000 418.400000
5449 15765 8321 1 109.50000 418.400000
5449 15765 11049 1 109.50000 418.400000
8321 15765 11049 1 109.50000 418.400000
1568 15766 2824 1 109.50000 418.400000
1568 15766 8451 1 109.50000 418.400000
1568 15766 8454 1 109.50000 418.400000
2824 15766 8451 1 109.50000 418.400000
2824 15766 8454 1 109.50000 418.400000
8451 15766 8454 1 109.50000 418.400000
1002 15767 2189 1 109.50000 418.400000
1002 15767 10799 1 109.50000 418.400000
1002 15767 11050 1 109.50000 418.400000
2189 15767 10799 1 109.50000 418.400000
2189 15767 11050 1 109.50000 418.400000
10799 15767 11050 1 109.50000 418.400000
2915 15768 7696 1 109.50000 418.400000
2915 15768 10529 1 109.50000 418.400000
2915 15768 10778 1 109.50000 418.400000
7696 15768 10529 1 109.50000 418.400000
7696 15768 10778 1 109.50000 418.400000
10529 15768 10778 1 109.50000 418.400000
3140 15769 6874 1 109.50000 418.400000
3140 15769 8903 1 109.50000 418.400000
3140 15769 9242 1 109.50000 418.400000
6874 15769 8903 1 109.50000 418.400000
6874 15769 9242 1 109.50000 418.400000
8903 15769 9242 1 109.50000 418.400000
8922 15770 9295 1 109.50000 418.400000
8922 15770 10273 1 109.50000 418.400000
8922 15770 10645 1 109.50000 418.400000
9295 15770 10273 1 109.50000 418.400000
9295 15770 10645 1 109.50000 418.400000
10273 15770 10645 1 109.50000 418.400000
791 15771 4491 1 109.50000 418.400000
791 15771 5413 1 109.50000 418.400000
791 15771 10230 1 109.50000 418.400000
4491 15771 5413 1 109.50000 418.400000
4491 15771 10230 1 109.50000 418.400000
5413 15771 10230 1 109.50000 418.400000
834 15772 1924 1 109.50000 418.400000
834 15772 8236 1 109.50000 418.400000
834 15772 10660 1 109.50000 418.400000
1924 15772 8236 1 109.50000 418.400000
1924 15772 10660 1 109.50000 418.400000
8236 15772 10660 1 109.50000 418.400000
7716 15773 8712 1 109.50000 418.400000
7716 15773 10553 1 109.50000 418.400000
7716 15773 11051 1 109.50000 418.400000
8712 15773 10553 1 109.50000 418.400000
8712 15773 11051 1 109.50000 418.400000
10553 15773 11051 1 109.50000 418.400000
4538 15774 5790 1 109.50000 418.400000
4538 15774 6640 1 109.50000 418.400000
4538 15774 8656 1 109.50000 418.400000
5790 15774 6640 1 109.50000 418.400000
5790 15774 8656 1 109.50000 418.400000
6640 15774 8656 1 109.50000 418.400000
95 15775 495 1 109.50000 418.400000
95 15775 4558 1 109.50000 418.400000
95 15775 9552 1 109.50000 418.400000
495 15775 4558 1 109.50000 418.400000
495 15775 9552 1 109.50000 418.400000
4558 15775 9552 1 109.50000 418.400000
2907 15776 2908 1 109.50000 418.400000
2907 15776 8540 1 109.50000 418.400000
2907 15776 10378 1 109.50000 418.400000
2908 15776 8540 1 109.50000 418.400000
2908 15776 10378 1 109.50000 418.400000
8540 15776 10378 1 109.50000 418.400000
4651 15777 10422 1 109.50000 418.400000
4651 15777 10760 1 109.50000 418.400000
4651 15777 11023 1 109.50000 418.400000
10422 15777 10760 1 109.50000 418.400000
10422 15777 11023 1 109.50000 418.400000
10760 15777 11023 1 109.50000 418.400000
10389 15778 10594 1 109.50000 418.400000
10389 15778 11020 1 109.50000 418.400000
10389 15778 11021 1 109.50000 418.400000
10594 15778 11020 1 109.50000 418.400000
10594 15778 11021 1 109.50000 418.400000
11020 15778 11021 1 109.50000 418.400000
4961 15779 10119 1 109.50000 418.400000
4961 15779 10306 1 109.50000 418.400000
4961 15779 11052 1 109.50000 418.400000
10119 15779 10306 1 109.50000 418.400000
10119 15779 11052 1 109.50000 418.400000
10306 15779 11052 1 109.50000 418.400000
2687 15780 4740 1 109.50000 418.400000
2687 15780 9745 1 109.50000 418.400000
2687 15780 11053 1 109.50000 418.400000
4740 15780 9745 1 109.50000 418.400000
4740 15780 11053 1 109.50000 418.400000
9745 15780 11053 1 109.50000 418.400000
4480 15781 4481 1 109.50000 418.400000
4480 15781 6824 1 109.50000 418.400000
4480 15781 11008 1 109.50000 418.400000
4481 15781 6824 1 109.50000 418.400000
4481 15781 11008 1 109.50000 418.400000
6824 15781 11008 1 109.50000 418.400000
5483 15782 8119 1 109.50000 418.400000
5483 15782 8947 1 109.50000 418.400000
5483 15782 9630 1 109.50000 418.400000
8119 15782 8947 1 109.50000 418.400000
8119 15782 9630 1 109.50000 418.400000
8947 15782 9630 1 109.50000 418.400000
7405 15783 9609 1 109.50000 418.400000
7405 15783 9610 1 109.50000 418.400000
7405 15783 9611 1 109.50000 418.400000
9609 15783 9610 1 109.50000 418.400000
9609 15783 9611 1 109.50000 418.400000
9610 15783 9611 1 109.50000 418.400000
104 15784 7826 1 109.50000 418.400000
104 15784 9079 1 109.50000 418.400000
104 15784 11056 1 109.50000 418.400000
7826 15784 9079 1 109.50000 418.400000
7826 15784 11056 1 109.50000 418.400000
9079 15784 11056 1 109.50000 418.400000
4423 15785 5226 1 109.50000 418.400000
4423 15785 5956 1 109.50000 418.400000
4423 15785 9872 1 109.50000 418.400000
5226 15785 5956 1 109.50000 418.400000
5226 15785 9872 1 109.50000 418.400000
5956 15785 9872 1 109.50000 418.400000
2456 15786 6621 1 109.50000 418.400000
2456 15786 8648 1 109.50000 418.400000
2456 15786 10357 1 109.50000 418.400000
6621 15786 8648 1 109.50000 418.400000
6621 15786 10357 1 109.50000 418.400000
8648 15786 10357 1 109.50000 418.400000
108 15787 170 1 109.50000 418.400000
108 15787 3078 1 109.50000 418.400000
108 15787 8065 1 109.50000 418.400000
170 15787 3078 1 109.50000 418.400000
170 15787 8065 1 109.50000 418.400000
3078 15787 8065 1 109.50000 418.400000
7761 15788 7829 1 109.50000 418.400000
7761 15788 8613 1 109.50000 418.400000
7761 15788 11038 1 109.50000 418.400000
7829 15788 8613 1 109.50000 418.400000
7829 15788 11038 1 109.50000 418.400000
8613 15788 11038 1 109.50000 418.400000
3194 15789 3196 1 109.50000 418.400000
3194 15789 8374 1 109.50000 418.400000
3194 15789 11037 1 109.50000 418.400000
3196 15789 8374 1 109.50000 418.400000
3196 15789 11037 1 109.50000 418.400000
8374 15789 11037 1 109.50000 418.400000
7869 15790 9450 1 109.50000 418.400000
7869 15790 10227 1 109.50000 418.400000
7869 15790 11006 1 109.50000 418.400000
9450 15790 10227 1 109.50000 418.400000
9450 15790 11006 1 109.50000 418.400000
10227 15790 11006 1 109.50000 418.400000
2929 15791 5227 1 109.50000 418.400000
2929 15791 9353 1 109.50000 418.400000
2929 15791 10190 1 109.50000 418.400000
5227 15791 9353 1 109.50000 418.400000
5227 15791 10190 1 109.50000 418.400000
9353 15791 10190 1 109.50000 418.400000
3321 15792 3718 1 109.50000 418.400000
3321 15792 10630 1 109.50000 418.400000
3321 15792 11057 1 109.50000 418.400000
3718 15792 10630 1 109.50000 418.400000
3718 15792 11057 1 109.50000 418.400000
10630 15792 11057 1 109.50000 418.400000
7095 15793 7670 1 109.50000 418.400000
7095 15793 9443 1 109.50000 418.400000
7095 15793 10722 1 109.50000 418.400000
7670 15793 9443 1 109.50000 418.400000
7670 15793 10722 1 109.50000 418.400000
9443 15793 10722 1 109.50000 418.400000
892 15794 8281 1 109.50000 418.400000
892 15794 10401 1 109.50000 418.400000
892 15794 11058 1 109.50000 418.400000
8281 15794 10401 1 109.50000 418.400000
8281 15794 11058 1 109.50000 418.400000
10401 15794 11058 1 109.50000 418.400000
4745 15795 8610 1 109.50000 418.400000
4745 15795 9692 1 109.50000 418.400000
4745 15795 10501 1 109.50000 418.400000
8610 15795 9692 1 109.50000 418.400000
8610 15795 10501 1 109.50000 418.400000
9692 15795 10501 1 109.50000 418.400000
2305 15796 8861 1 109.50000 418.400000
2305 15796 8970 1 109.50000 418.400000
2305 15796 11059 1 109.50000 418.400000
8861 15796 8970 1 109.50000 418.400000
8861 15796 11059 1 109.50000 418.400000
8970 15796 11059 1 109.50000 418.400000
7526 15797 9050 1 109.50000 418.400000
7526 15797 11060 1 109.50000 418.400000
7526 15797 11061 1 109.50000 418.400000
9050 15797 11060 1 109.50000 418.400000
9050 15797 11061 1 109.50000 418.400000
11060 15797 11061 1 109.50000 418.400000
1615 15798 3457 1 109.50000 418.400000
1615 15798 9099 1 109.50000 418.400000
1615 15798 10339 1 109.50000 418.400000
3457 15798 9099 1 109.50000 418.400000
3457 15798 10339 1 109.50000 418.400000
9099 15798 10339 1 109.50000 418.400000
3082 15799 7300 1 109.50000 418.400000
3082 15799 9941 1 109.50000 418.400000
3082 15799 11063 1 109.50000 418.400000
7300 15799 9941 1 109.50000 418.400000
7300 15799 11063 1 109.50000 418.400000
9941 15799 11063 1 109.50000 418.400000
3355 15800 5225 1 109.50000 418.400000
3355 15800 8226 1 109.50000 418.400000
3355 15800 10803 1 109.50000 418.400000
5225 15800 8226 1 109.50000 418.400000
5225 15800 10803 1 109.50000 418.400000
8226 15800 10803 1 109.50000 418.400000
7357 15801 8145 1 109.50000 418.400000
7357 15801 10354 1 109.50000 418.400000
7357 15801 10700 1 109.50000 418.400000
8145 15801 10354 1 109.50000 418.400000
8145 15801 10700 1 109.50000 418.400000
10354 15801 10700 1 109.50000 418.400000
3757 15802 8606 1 109.50000 418.400000
3757 15802 8691 1 109.50000 418.400000
3757 15802 10505 1 109.50000 418.400000
8606 15802 8691 1 109.50000 418.400000
8606 15802 10505 1 109.50000 418.400000
8691 15802 10505 1 109.50000 418.400000
2564 15803 3312 1 109.50000 418.400000
2564 15803 3684 1 109.50000 418.400000
2564 15803 8882 1 109.50000 418.400000
3312 15803 3684 1 109.50000 418.400000
3312 15803 8882 1 109.50000 418.400000
3684 15803 8882 1 109.50000 418.400000
2083 15804 2339 1 109.50000 418.400000
2083 15804 3316 1 109.50000 418.400000
2083 15804 11064 1 109.50000 418.400000
2339 15804 3316 1 109.50000 418.400000
2339 15804 11064 1 109.50000 418.400000
3316 15804 11064 1 109.50000 418.400000
489 15805 7798 1 109.50000 418.400000
489 15805 9610 1 109.50000 418.400000
489 15805 10642 1 109.50000 418.400000
7798 15805 9610 1 109.50000 418.400000
7798 15805 10642 1 109.50000 418.400000
9610 15805 10642 1 109.50000 418.400000
4373 15806 5576 1 109.50000 418.400000
4373 15806 7904 1 109.50000 418.400000
4373 15806 11065 1 109.50000 418.400000
5576 15806 7904 1 109.50000 418.400000
5576 15806 11065 1 109.50000 418.400000
7904 15806 11065 1 109.50000 418.400000
5195 15807 5503 1 109.50000 418.400000
5195 15807 9375 1 109.50000 418.400000
5195 15807 10561 1 109.50000 418.400000
5503 15807 9375 1 109.50000 418.400000
5503 15807 10561 1 109.50000 418.400000
9375 15807 10561 1 109.50000 418.400000
6571 15808 10073 1 109.50000 418.400000
6571 15808 10976 1 109.50000 418.400000
6571 15808 11066 1 109.50000 418.400000
10073 15808 10976 1 109.50000 418.400000
10073 15808 11066 1 109.50000 418.400000
10976 15808 11066 1 109.50000 418.400000
5680 15809 8147 1 109.50000 418.400000
5680 15809 9141 1 109.50000 418.400000
5680 15809 10524 1 109.50000 418.400000
8147 15809 9141 1 109.50000 418.400000
8147 15809 10524 1 109.50000 418.400000
9141 15809 10524 1 109.50000 418.400000
44 15810 807 1 109.50000 418.400000
44 15810 4858 1 109.50000 418.400000
44 15810 4988 1 109.50000 418.400000
807 15810 4858 1 109.50000 418.400000
807 15810 4988 1 109.50000 418.400000
4858 15810 4988 1 109.50000 418.400000
6059 15811 10041 1 109.50000 418.400000
6059 15811 10379 1 109.50000 418.400000
6059 15811 11068 1 109.50000 418.400000
10041 15811 10379 1 109.50000 418.400000
10041 15811 11068 1 109.50000 418.400000
10379 15811 11068 1 109.50000 418.400000
3529 15812 7111 1 109.50000 418.400000
3529 15812 8333 1 109.50000 418.400000
3529 15812 10682 1 109.50000 418.400000
7111 15812 8333 1 109.50000 418.400000
7111 15812 10682 1 109.50000 418.400000
8333 15812 10682 1 109.50000 418.400000
3406 15813 5580 1 109.50000 418.400000
3406 15813 6416 1 109.50000 418.400000
3406 15813 11070 1 109.50000 418.400000
5580 15813 6416 1 109.50000 418.400000
5580 15813 11070 1 109.50000 418.400000
6416 15813 11070 1 109.50000 418.400000
1092 15814 9907 1 109.50000 418.400000
1092 15814 10160 1 109.50000 418.400000
1092 15814 11071 1 109.50000 418.400000
9907 15814 10160 1 109.50000 418.400000
9907 15814 11071 1 109.50000 418.400000
10160 15814 11071 1 109.50000 418.400000
6863 15815 10933 1 109.50000 418.400000
6863 15815 11072 1 109.50000 418.400000
6863 15815 11073 1 109.50000 418.400000
10933 15815 11072 1 109.50000 418.400000
10933 15815 11073 1 109.50000 418.400000
11072 15815 11073 1 109.50000 418.400000
323 15816 2317 1 109.50000 418.400000
323 15816 5853 1 109.50000 418.400000
323 15816 11050 1 109.50000 418.400000
2317 15816 5853 1 109.50000 418.400000
2317 15816 11050 1 109.50000 418.400000
5853 15816 11050 1 109.50000 418.400000
8454 15817 10608 1 109.50000 418.400000
8454 15817 10943 1 109.50000 418.400000
8454 15817 10948 1 109.50000 418.400000
10608 15817 10943 1 109.50000 418.400000
10608 15817 10948 1 109.50000 418.400000
10943 15817 10948 1 109.50000 418.400000
4507 15818 7643 1 109.50000 418.400000
4507 15818 10095 1 109.50000 418.400000
4507 15818 10798 1 109.50000 418.400000
7643 15818 10095 1 109.50000 418.400000
7643 15818 10798 1 109.50000 418.400000
10095 15818 10798 1 109.50000 418.400000
833 15819 1720 1 109.50000 418.400000
833 15819 3848 1 109.50000 418.400000
833 15819 9624 1 109.50000 418.400000
1720 15819 3848 1 109.50000 418.400000
1720 15819 9624 1 109.50000 418.400000
3848 15819 9624 1 109.50000 418.400000
5544 15820 6401 1 109.50000 418.400000
5544 15820 7038 1 109.50000 418.400000
5544 15820 11074 1 109.50000 418.400000
6401 15820 7038 1 109.50000 418.400000
6401 15820 11074 1 109.50000 418.400000
7038 15820 11074 1 109.50000 418.400000
7982 15821 8934 1 109.50000 418.400000
7982 15821 9862 1 109.50000 418.400000
7982 15821 10429 1 109.50000 418.400000
8934 15821 9862 1 109.50000 418.400000
8934 15821 10429 1 109.50000 418.400000
9862 15821 10429 1 109.50000 418.400000
2522 15822 4681 1 109.50000 418.400000
2522 15822 7190 1 109.50000 418.400000
2522 15822 10717 1 109.50000 418.400000
4681 15822 7190 1 109.50000 418.400000
4681 15822 10717 1 109.50000 418.400000
7190 15822 10717 1 109.50000 418.400000
4106 15823 6040 1 109.50000 418.400000
4106 15823 9125 1 109.50000 418.400000
4106 15823 9126 1 109.50000 418.400000
6040 15823 9125 1 109.50000 418.400000
6040 15823 9126 1 109.50000 418.400000
9125 15823 9126 1 109.50000 418.400000
7802 15824 8130 1 109.50000 418.400000
7802 15824 9818 1 109.50000 418.400000
7802 15824 10968 1 109.50000 418.400000
8130 15824 9818 1 109.50000 418.400000
8130 15824 10968 1 109.50000 418.400000
9818 15824 10968 1 109.50000 418.400000
4748 15825 8538 1 109.50000 418.400000
4748 15825 9332 1 109.50000 418.400000
4748 15825 9863 1 109.50000 418.400000
8538 15825 9332 1 109.50000 418.400000
8538 15825 9863 1 109.50000 418.400000
9332 15825 9863 1 109.50000 418.400000
9064 15826 10861 1 109.50000 418.400000
9064 15826 10895 1 109.50000 418.400000
9064 15826 10975 1 109.50000 418.400000
10861 15826 10895 1 109.50000 418.400000
10861 15826 10975 1 109.50000 418.400000
10895 15826 10975 1 109.50000 418.400000
1257 15827 1577 1 109.50000 418.400000
1257 15827 8612 1 109.50000 418.400000
1257 15827 11076 1 109.50000 418.400000
1577 15827 8612 1 109.50000 418.400000
1577 15827 11076 1 109.50000 418.400000
8612 15827 11076 1 109.50000 418.400000
9139 15828 10411 1 109.50000 418.400000
9139 15828 10858 1 109.50000 418.400000
9139 15828 11075 1 109.50000 418.400000
10411 15828 10858 1 109.50000 418.400000
10411 15828 11075 1 109.50000 418.400000
10858 15828 11075 1 109.50000 418.400000
4074 15829 4313 1 109.50000 418.400000
4074 15829 4680 1 109.50000 418.400000
4074 15829 5906 1 109.50000 418.400000
4313 15829 4680 1 109.50000 418.400000
4313 15829 5906 1 109.50000 418.400000
4680 15829 5906 1 109.50000 418.400000
8228 15830 8812 1 109.50000 418.400000
8228 15830 10528 1 109.50000 418.400000
8228 15830 11028 1 109.50000 418.400000
8812 15830 10528 1 109.50000 418.400000
8812 15830 11028 1 109.50000 418.400000
10528 15830 11028 1 109.50000 418.400000
2355 15831 4004 1 109.50000 418.400000
2355 15831 9117 1 109.50000 418.400000
2355 15831 9285 1 109.50000 418.400000
4004 15831 9117 1 109.50000 418.400000
4004 15831 9285 1 109.50000 418.400000
9117 15831 9285 1 109.50000 418.400000
7536 15832 9106 1 109.50000 418.400000
7536 15832 10279 1 109.50000 418.400000
7536 15832 10310 1 109.50000 418.400000
9106 15832 10279 1 109.50000 418.400000
9106 15832 10310 1 109.50000 418.400000
10279 15832 10310 1 109.50000 418.400000
6302 15833 11009 1 109.50000 418.400000
6302 15833 11052 1 109.50000 418.400000
6302 15833 11211 1 109.50000 418.400000
11009 15833 11052 1 109.50000 418.400000
11009 15833 11211 1 109.50000 418.400000
11052 15833 11211 1 109.50000 418.400000
912 15834 2798 1 109.50000 418.400000
912 15834 6520 1 109.50000 418.400000
912 15834 11000 1 109.50000 418.400000
2798 15834 6520 1 109.50000 418.400000
2798 15834 11000 1 109.50000 418.400000
6520 15834 11000 1 109.50000 418.400000
3007 15835 5512 1 109.50000 418.400000
3007 15835 7916 1 109.50000 418.400000
3007 15835 11077 1 109.50000 418.400000
5512 15835 7916 1 109.50000 418.400000
5512 15835 11077 1 109.50000 418.400000
7916 15835 11077 1 109.50000 418.400000
1758 15836 5737 1 109.50000 418.400000
1758 15836 8731 1 109.50000 418.400000
1758 15836 9623 1 109.50000 418.400000
5737 15836 8731 1 109.50000 418.400000
5737 15836 9623 1 109.50000 418.400000
8731 15836 9623 1 109.50000 418.400000
3841 15837 7004 1 109.50000 418.400000
3841 15837 10904 1 109.50000 418.400000
3841 15837 10994 1 109.50000 418.400000
7004 15837 10904 1 109.50000 418.400000
7004 15837 10994 1 109.50000 418.400000
10904 15837 10994 1 109.50000 418.400000
365 15838 556 1 109.50000 418.400000
365 15838 1992 1 109.50000 418.400000
365 15838 10840 1 109.50000 418.400000
556 15838 1992 1 109.50000 418.400000
556 15838 10840 1 109.50000 418.400000
1992 15838 10840 1 109.50000 418.400000
6353 15839 8303 1 109.50000 418.400000
6353 15839 8809 1 109.50000 418.400000
6353 15839 10807 1 109.50000 418.400000
8303 15839 8809 1 109.50000 418.400000
8303 15839 10807 1 109.50000 418.400000
8809 15839 10807 1 109.50000 418.400000
3107 15840 8975 1 109.50000 418.400000
3107 15840 10194 1 109.50000 418.400000
3107 15840 10195 1 109.50000 418.400000
8975 15840 10194 1 109.50000 418.400000
8975 15840 10195 1 109.50000 418.400000
10194 15840 10195 1 109.50000 418.400000
2318 15841 3731 1 109.50000 418.400000
2318 15841 9396 1 109.50000 418.400000
2318 15841 10987 1 109.50000 418.400000
3731 15841 9396 1 109.50000 418.400000
3731 15841 10987 1 109.50000 418.400000
9396 15841 10987 1 109.50000 418.400000
5536 15842 9566 1 109.50000 418.400000
5536 15842 10918 1 109.50000 418.400000
5536 15842 11035 1 109.50000 418.400000
9566 15842 10918 1 109.50000 418.400000
9566 15842 11035 1 109.50000 418.400000
10918 15842 11035 1 109.50000 418.400000
8817 15843 9689 1 109.50000 418.400000
8817 15843 9890 1 109.50000 418.400000
8817 15843 10935 1 109.50000 418.400000
9689 15843 9890 1 109.50000 418.400000
9689 15843 10935 1 109.50000 418.400000
9890 15843 10935 1 109.50000 418.400000
7471 15844 8124 1 109.50000 418.400000
7471 15844 9317 1 109.50000 418.400000
7471 15844 10096 1 109.50000 418.400000
8124 15844 9317 1 109.50000 418.400000
8124 15844 10096 1 109.50000 418.400000
9317 15844 10096 1 109.50000 418.400000
4337 15845 11071 1 109.50000 418.400000
4337 15845 11079 1 109.50000 418.400000
4337 15845 11080 1 109.50000 418.400000
11071 15845 11079 1 109.50000 418.400000
11071 15845 11080 1 109.50000 418.400000
11079 15845 11080 1 109.50000 418.400000
5701 15846 7692 1 109.50000 418.400000
5701 15846 9217 1 109.50000 418.400000
5701 15846 9917 1 109.50000 418.400000
7692 15846 9217 1 109.50000 418.400000
7692 15846 9917 1 109.50000 418.400000
9217 15846 9917 1 109.50000 418.400000
2457 15847 2708 1 109.50000 418.400000
2457 15847 4603 1 109.50000 418.400000
2457 15847 11081 1 109.50000 418.400000
2708 15847 4603 1 109.50000 418.400000
2708 15847 11081 1 109.50000 418.400000
4603 15847 11081 1 109.50000 418.400000
2437 15848 3256 1 109.50000 418.400000
2437 15848 9826 1 109.50000 418.400000
2437 15848 10005 1 109.50000 418.400000
3256 15848 9826 1 109.50000 418.400000
3256 15848 10005 1 109.50000 418.400000
9826 15848 10005 1 109.50000 418.400000
5116 15849 9651 1 109.50000 418.400000
5116 15849 9700 1 109.50000 418.400000
5116 15849 11077 1 109.50000 418.400000
9651 15849 9700 1 109.50000 418.400000
9651 15849 11077 1 109.50000 418.400000
9700 15849 11077 1 109.50000 418.400000
4940 15850 4942 1 109.50000 418.400000
4940 15850 8358 1 109.50000 418.400000
4940 15850 10481 1 109.50000 418.400000
4942 15850 8358 1 109.50000 418.400000
4942 15850 10481 1 109.50000 418.400000
8358 15850 10481 1 109.50000 418.400000
4045 15851 5614 1 109.50000 418.400000
4045 15851 10595 1 109.50000 418.400000
4045 15851 11082 1 109.50000 418.400000
5614 15851 10595 1 109.50000 418.400000
5614 15851 11082 1 109.50000 418.400000
10595 15851 11082 1 109.50000 418.400000
5691 15852 7796 1 109.50000 418.400000
5691 15852 9382 1 109.50000 418.400000
5691 15852 11080 1 109.50000 418.400000
7796 15852 9382 1 109.50000 418.400000
7796 15852 11080 1 109.50000 418.400000
9382 15852 11080 1 109.50000 418.400000
5282 15853 5376 1 109.50000 418.400000
5282 15853 8870 1 109.50000 418.400000
5282 15853 10216 1 109.50000 418.400000
5376 15853 8870 1 109.50000 418.400000
5376 15853 10216 1 109.50000 418.400000
8870 15853 10216 1 109.50000 418.400000
812 15854 5064 1 109.50000 418.400000
812 15854 8201 1 109.50000 418.400000
812 15854 10017 1 109.50000 418.400000
5064 15854 8201 1 109.50000 418.400000
5064 15854 10017 1 109.50000 418.400000
8201 15854 10017 1 109.50000 418.400000
3640 15855 9376 1 109.50000 418.400000
3640 15855 10913 1 109.50000 418.400000
3640 15855 10920 1 109.50000 418.400000
9376 15855 10913 1 109.50000 418.400000
9376 15855 10920 1 109.50000 418.400000
10913 15855 10920 1 109.50000 418.400000
1797 15856 5186 1 109.50000 418.400000
1797 15856 6339 1 109.50000 418.400000
1797 15856 10846 1 109.50000 418.400000
5186 15856 6339 1 109.50000 418.400000
5186 15856 10846 1 109.50000 418.400000
6339 15856 10846 1 109.50000 418.400000
1127 15857 7880 1 109.50000 418.400000
1127 15857 9660 1 109.50000 418.400000
1127 15857 11083 1 109.50000 418.400000
7880 15857 9660 1 109.50000 418.400000
7880 15857 11083 1 109.50000 418.400000
9660 15857 11083 1 109.50000 418.400000
731 15858 6766 1 109.50000 418.400000
731 15858 10228 1 109.50000 418.400000
731 15858 10568 1 109.50000 418.400000
6766 15858 10228 1 109.50000 418.400000
6766 15858 10568 1 109.50000 418.400000
10228 15858 10568 1 109.50000 418.400000
235 15859 842 1 109.50000 418.400000
235 15859 9780 1 109.50000 418.400000
235 15859 10691 1 109.50000 418.400000
842 15859 9780 1 109.50000 418.400000
842 15859 10691 1 109.50000 418.400000
9780 15859 10691 1 109.50000 418.400000
1384 15860 4385 1 109.50000 418.400000
1384 15860 5213 1 109.50000 418.400000
1384 15860 6280 1 109.50000 418.400000
4385 15860 5213 1 109.50000 418.400000
4385 15860 6280 1 109.50000 418.400000
5213 15860 6280 1 109.50000 418.400000
4969 15861 8335 1 109.50000 418.400000
4969 15861 9962 1 109.50000 418.400000
4969 15861 10653 1 109.50000 418.400000
8335 15861 9962 1 109.50000 418.400000
8335 15861 10653 1 109.50000 418.400000
9962 15861 10653 1 109.50000 418.400000
6046 15862 6381 1 109.50000 418.400000
6046 15862 9612 1 109.50000 418.400000
6046 15862 10696 1 109.50000 418.400000
6381 15862 9612 1 109.50000 418.400000
6381 15862 10696 1 109.50000 418.400000
9612 15862 10696 1 109.50000 418.400000
1230 15863 8864 1 109.50000 418.400000
1230 15863 11025 1 109.50000 418.400000
1230 15863 11045 1 109.50000 418.400000
8864 15863 11025 1 109.50000 418.400000
8864 15863 11045 1 109.50000 418.400000
11025 15863 11045 1 109.50000 418.400000
1531 15864 2481 1 109.50000 418.400000
1531 15864 8352 1 109.50000 418.400000
1531 15864 9342 1 109.50000 418.400000
2481 15864 8352 1 109.50000 418.400000
2481 15864 9342 1 109.50000 418.400000
8352 15864 9342 1 109.50000 418.400000
6992 15865 7845 1 109.50000 418.400000
6992 15865 8420 1 109.50000 418.400000
6992 15865 11084 1 109.50000 418.400000
7845 15865 8420 1 109.50000 418.400000
7845 15865 11084 1 109.50000 418.400000
8420 15865 11084 1 109.50000 418.400000
3410 15866 8170 1 109.50000 418.400000
3410 15866 8346 1 109.50000 418.400000
3410 15866 9626 1 109.50000 418.400000
8170 15866 8346 1 109.50000 418.400000
8170 15866 9626 1 109.50000 418.400000
8346 15866 9626 1 109.50000 418.400000
7244 15867 7464 1 109.50000 418.400000
7244 15867 8015 1 109.50000 418.400000
7244 15867 11085 1 109.50000 418.400000
7464 15867 8015 1 109.50000 418.400000
7464 15867 11085 1 109.50000 418.400000
8015 15867 11085 1 109.50000 418.400000
8166 15868 8434 1 109.50000 418.400000
8166 15868 8436 1 109.50000 418.400000
8166 15868 9790 1 109.50000 418.400000
8434 15868 8436 1 109.50000 418.400000
8434 15868 9790 1 109.50000 418.400000
8436 15868 9790 1 109.50000 418.400000
368 15869 369 1 109.50000 418.400000
368 15869 370 1 109.50000 418.400000
368 15869 9982 1 109.50000 418.400000
369 15869 370 1 109.50000 418.400000
369 15869 9982 1 109.50000 418.400000
370 15869 9982 1 109.50000 418.400000
1901 15870 5626 1 109.50000 418.400000
1901 15870 9931 1 109.50000 418.400000
1901 15870 10294 1 109.50000 418.400000
5626 15870 9931 1 109.50000 418.400000
5626 15870 10294 1 109.50000 418.400000
9931 15870 10294 1 109.50000 418.400000
4160 15871 4215 1 109.50000 418.400000
4160 15871 10057 1 109.50000 418.400000
4160 15871 11086 1 109.50000 418.400000
4215 15871 10057 1 109.50000 418.400000
4215 15871 11086 1 109.50000 418.400000
10057 15871 11086 1 109.50000 418.400000
1095 15872 4802 1 109.50000 418.400000
1095 15872 10726 1 109.50000 418.400000
1095 15872 10937 1 109.50000 418.400000
4802 15872 10726 1 109.50000 418.400000
4802 15872 10937 1 109.50000 418.400000
10726 15872 10937 1 109.50000 418.400000
6177 15873 8820 1 109.50000 418.400000
6177 15873 10026 1 109.50000 418.400000
6177 15873 11087 1 109.50000 418.400000
8820 15873 10026 1 109.50000 418.400000
8820 15873 11087 1 109.50000 418.400000
10026 15873 11087 1 109.50000 418.400000
5943 15874 7934 1 109.50000 418.400000
5943 15874 9268 1 109.50000 418.400000
5943 15874 9408 1 109.50000 418.400000
7934 15874 9268 1 109.50000 418.400000
7934 15874 9408 1 109.50000 418.400000
9268 15874 9408 1 109.50000 418.400000
2610 15875 4204 1 109.50000 418.400000
2610 15875 6245 1 109.50000 418.400000
2610 15875 9411 1 109.50000 418.400000
4204 15875 6245 1 109.50000 418.400000
4204 15875 9411 1 109.50000 418.400000
6245 15875 9411 1 109.50000 418.400000
3854 15876 5842 1 109.50000 418.400000
3854 15876 10170 1 109.50000 418.400000
3854 15876 10285 1 109.50000 418.400000
5842 15876 10170 1 109.50000 418.400000
5842 15876 10285 1 109.50000 418.400000
10170 15876 10285 1 109.50000 418.400000
4208 15877 8473 1 109.50000 418.400000
4208 15877 9009 1 109.50000 418.400000
4208 15877 10424 1 109.50000 418.400000
8473 15877 9009 1 109.50000 418.400000
8473 15877 10424 1 109.50000 418.400000
9009 15877 10424 1 109.50000 418.400000
7882 15878 10620 1 109.50000 418.400000
7882 15878 10851 1 109.50000 418.400000
7882 15878 11088 1 109.50000 418.400000
10620 15878 10851 1 109.50000 418.400000
10620 15878 11088 1 109.50000 418.400000
10851 15878 11088 1 109.50000 418.400000
3580 15879 7041 1 109.50000 418.400000
3580 15879 9959 1 109.50000 418.400000
3580 15879 10941 1 109.50000 418.400000
7041 15879 9959 1 109.50000 418.400000
7041 15879 10941 1 109.50000 418.400000
9959 15879 10941 1 109.50000 418.400000
9857 15880 10719 1 109.50000 418.400000
9857 15880 11089 1 109.50000 418.400000
9857 15880 11090 1 109.50000 418.400000
10719 15880 11089 1 109.50000 418.400000
10719 15880 11090 1 109.50000 418.400000
11089 15880 11090 1 109.50000 418.400000
1215 15881 3499 1 109.50000 418.400000
1215 15881 9825 1 109.50000 418.400000
1215 15881 11091 1 109.50000 418.400000
3499 15881 9825 1 109.50000 418.400000
3499 15881 11091 1 109.50000 418.400000
9825 15881 11091 1 109.50000 418.400000
1843 15882 5477 1 109.50000 418.400000
1843 15882 10823 1 109.50000 418.400000
1843 15882 11051 1 109.50000 418.400000
5477 15882 10823 1 109.50000 418.400000
5477 15882 11051 1 109.50000 418.400000
10823 15882 11051 1 109.50000 418.400000
2279 15883 3225 1 109.50000 418.400000
2279 15883 6345 1 109.50000 418.400000
2279 15883 9291 1 109.50000 418.400000
3225 15883 6345 1 109.50000 418.400000
3225 15883 9291 1 109.50000 418.400000
6345 15883 9291 1 109.50000 418.400000
4029 15884 7771 1 109.50000 418.400000
4029 15884 8373 1 109.50000 418.400000
4029 15884 10415 1 109.50000 418.400000
7771 15884 8373 1 109.50000 418.400000
7771 15884 10415 1 109.50000 418.400000
8373 15884 10415 1 109.50000 418.400000
735 15885 3185 1 109.50000 418.400000
735 15885 10191 1 109.50000 418.400000
735 15885 10393 1 109.50000 418.400000
3185 15885 10191 1 109.50000 418.400000
3185 15885 10393 1 109.50000 418.400000
10191 15885 10393 1 109.50000 418.400000
4668 15886 6117 1 109.50000 418.400000
4668 15886 9254 1 109.50000 418.400000
4668 15886 10898 1 109.50000 418.400000
6117 15886 9254 1 109.50000 418.400000
6117 15886 10898 1 109.50000 418.400000
9254 15886 10898 1 109.50000 418.400000
466 15887 6821 1 109.50000 418.400000
466 15887 8167 1 109.50000 418.400000
466 15887 11061 1 109.50000 418.400000
6821 15887 8167 1 109.50000 418.400000
6821 15887 11061 1 109.50000 418.400000
8167 15887 11061 1 109.50000 418.400000
1750 15888 10502 1 109.50000 418.400000
1750 15888 10574 1 109.50000 418.400000
1750 15888 10583 1 109.50000 418.400000
10502 15888 10574 1 109.50000 418.400000
10502 15888 10583 1 109.50000 418.400000
10574 15888 10583 1 109.50000 418.400000
2300 15889 7197 1 109.50000 418.400000
2300 15889 8846 1 109.50000 418.400000
2300 15889 11093 1 109.50000 418.400000
7197 15889 8846 1 109.50000 418.400000
7197 15889 11093 1 109.50000 418.400000
8846 15889 11093 1 109.50000 418.400000
412 15890 1026 1 109.50000 418.400000
412 15890 2829 1 109.50000 418.400000
412 15890 5278 1 109.50000 418.400000
1026 15890 2829 1 109.50000 418.400000
1026 15890 5278 1 109.50000 418.400000
2829 15890 5278 1 109.50000 418.400000
3052 15891 7671 1 109.50000 418.400000
3052 15891 7672 1 109.50000 418.400000
3052 15891 10366 1 109.50000 418.400000
7671 15891 7672 1 109.50000 418.400000
7671 15891 10366 1 109.50000 418.400000
7672 15891 10366 1 109.50000 418.400000
2678 15892 4864 1 109.50000 418.400000
2678 15892 8945 1 109.50000 418.400000
2678 15892 10445 1 109.50000 418.400000
4864 15892 8945 1 109.50000 418.400000
4864 15892 10445 1 109.50000 418.400000
8945 15892 10445 1 109.50000 418.400000
1227 15893 1319 1 109.50000 418.400000
1227 15893 3083 1 109.50000 418.400000
1227 15893 3653 1 109.50000 418.400000
1319 15893 3083 1 109.50000 418.400000
1319 15893 3653 1 109.50000 418.400000
3083 15893 3653 1 109.50000 418.400000
928 15894 1014 1 109.50000 418.400000
928 15894 5720 1 109.50000 418.400000
928 15894 10198 1 109.50000 418.400000
1014 15894 5720 1 109.50000 418.400000
1014 15894 10198 1 109.50000 418.400000
5720 15894 10198 1 109.50000 418.400000
6095 15895 8537 1 109.50000 418.400000
6095 15895 8854 1 109.50000 418.400000
6095 15895 9096 1 109.50000 418.400000
8537 15895 8854 1 109.50000 418.400000
8537 15895 9096 1 109.50000 418.400000
8854 15895 9096 1 109.50000 418.400000
4607 15896 6525 1 109.50000 418.400000
4607 15896 8280 1 109.50000 418.400000
4607 15896 9313 1 109.50000 418.400000
6525 15896 8280 1 109.50000 418.400000
6525 15896 9313 1 109.50000 418.400000
8280 15896 9313 1 109.50000 418.400000
6782 15897 7105 1 109.50000 418.400000
6782 15897 9420 1 109.50000 418.400000
6782 15897 10249 1 109.50000 418.400000
7105 15897 9420 1 109.50000 418.400000
7105 15897 10249 1 109.50000 418.400000
9420 15897 10249 1 109.50000 418.400000
5417 15898 7568 1 109.50000 418.400000
5417 15898 9505 1 109.50000 418.400000
5417 15898 10795 1 109.50000 418.400000
7568 15898 9505 1 109.50000 418.400000
7568 15898 10795 1 109.50000 418.400000
9505 15898 10795 1 109.50000 418.400000
9399 15899 10762 1 109.50000 418.400000
9399 15899 10818 1 109.50000 418.400000
9399 15899 10979 1 109.50000 418.400000
10762 15899 10818 1 109.50000 418.400000
10762 15899 10979 1 109.50000 418.400000
10818 15899 10979 1 109.50000 418.400000
3658 15900 5167 1 109.50000 418.400000
3658 15900 6505 1 109.50000 418.400000
3658 15900 8860 1 109.50000 418.400000
5167 15900 6505 1 109.50000 418.400000
5167 15900 8860 1 109.50000 418.400000
6505 15900 8860 1 109.50000 418.400000
1631 15901 1633 1 109.50000 418.400000
1631 15901 2956 1 109.50000 418.400000
1631 15901 11057 1 109.50000 418.400000
1633 15901 2956 1 109.50000 418.400000
1633 15901 11057 1 109.50000 418.400000
2956 15901 11057 1 109.50000 418.400000
2462 15902 8028 1 109.50000 418.400000
2462 15902 8308 1 109.50000 418.400000
2462 15902 10330 1 109.50000 418.400000
8028 15902 8308 1 109.50000 418.400000
8028 15902 10330 1 109.50000 418.400000
8308 15902 10330 1 109.50000 418.400000
2461 15903 8205 1 109.50000 418.400000
2461 15903 10562 1 109.50000 418.400000
2461 15903 11094 1 109.50000 418.400000
8205 15903 10562 1 109.50000 418.400000
8205 15903 11094 1 109.50000 418.400000
10562 15903 11094 1 109.50000 418.400000
1696 15904 2144 1 109.50000 418.400000
1696 15904 9002 1 109.50000 418.400000
1696 15904 9181 1 109.50000 418.400000
2144 15904 9002 1 109.50000 418.400000
2144 15904 9181 1 109.50000 418.400000
9002 15904 9181 1 109.50000 418.400000
3784 15905 7442 1 109.50000 418.400000
3784 15905 10533 1 109.50000 418.400000
3784 15905 10572 1 109.50000 418.400000
7442 15905 10533 1 109.50000 418.400000
7442 15905 10572 1 109.50000 418.400000
10533 15905 10572 1 109.50000 418.400000
4404 15906 5045 1 109.50000 418.400000
4404 15906 6021 1 109.50000 418.400000
4404 15906 10646 1 109.50000 418.400000
5045 15906 6021 1 109.50000 418.400000
5045 15906 10646 1 109.50000 418.400000
6021 15906 10646 1 109.50000 418.400000
6801 15907 7522 1 109.50000 418.400000
6801 15907 8845 1 109.50000 418.400000
6801 15907 10901 1 109.50000 418.400000
7522 15907 8845 1 109.50000 418.400000
7522 15907 10901 1 109.50000 418.400000
8845 15907 10901 1 109.50000 418.400000
544 15908 9461 1 109.50000 418.400000
544 15908 10877 1 109.50000 418.400000
544 15908 11002 1 109.50000 418.400000
9461 15908 10877 1 109.50000 418.400000
9461 15908 11002 1 109.50000 418.400000
10877 15908 11002 1 109.50000 418.400000
1190 15909 9058 1 109.50000 418.400000
1190 15909 10589 1 109.50000 418.400000
1190 15909 10983 1 109.50000 418.400000
9058 15909 10589 1 109.50000 418.400000
9058 15909 10983 1 109.50000 418.400000
10589 15909 10983 1 109.50000 418.400000
6182 15910 6886 1 109.50000 418.400000
6182 15910 10288 1 109.50000 418.400000
6182 15910 10791 1 109.50000 418.400000
6886 15910 10288 1 109.50000 418.400000
6886 15910 10791 1 109.50000 418.400000
10288 15910 10791 1 109.50000 418.400000
7229 15911 7784 1 109.50000 418.400000
7229 15911 9589 1 109.50000 418.400000
7229 15911 11095 1 109.50000 418.400000
7784 15911 9589 1 109.50000 418.400000
7784 15911 11095 1 109.50000 418.400000
9589 15911 11095 1 109.50000 418.400000
2384 15912 9588 1 109.50000 418.400000
2384 15912 10580 1 109.50000 418.400000
2384 15912 11086 1 109.50000 418.400000
9588 15912 10580 1 109.50000 418.400000
9588 15912 11086 1 109.50000 418.400000
10580 15912 11086 1 109.50000 418.400000
2104 15913 5823 1 109.50000 418.400000
2104 15913 8139 1 109.50000 418.400000
2104 15913 9831 1 109.50000 418.400000
5823 15913 8139 1 109.50000 418.400000
5823 15913 9831 1 109.50000 418.400000
8139 15913 9831 1 109.50000 418.400000
2157 15914 2435 1 109.50000 418.400000
2157 15914 3800 1 109.50000 418.400000
2157 15914 5721 1 109.50000 418.400000
2435 15914 3800 1 109.50000 418.400000
2435 15914 5721 1 109.50000 418.400000
3800 15914 5721 1 109.50000 418.400000
2868 15915 4881 1 109.50000 418.400000
2868 15915 5560 1 109.50000 418.400000
2868 15915 7631 1 109.50000 418.400000
4881 15915 5560 1 109.50000 418.400000
4881 15915 7631 1 109.50000 418.400000
5560 15915 7631 1 109.50000 418.400000
1355 15916 7690 1 109.50000 418.400000
1355 15916 8314 1 109.50000 418.400000
1355 15916 11096 1 109.50000 418.400000
7690 15916 8314 1 109.50000 418.400000
7690 15916 11096 1 109.50000 418.400000
8314 15916 11096 1 109.50000 418.400000
1165 15917 3860 1 109.50000 418.400000
1165 15917 9135 1 109.50000 418.400000
1165 15917 10637 1 109.50000 418.400000
3860 15917 9135 1 109.50000 418.400000
3860 15917 10637 1 109.50000 418.400000
9135 15917 10637 1 109.50000 418.400000
8311 15918 9474 1 109.50000 418.400000
8311 15918 10990 1 109.50000 418.400000
8311 15918 11011 1 109.50000 418.400000
9474 15918 10990 1 109.50000 418.400000
9474 15918 11011 1 109.50000 418.400000
10990 15918 11011 1 109.50000 418.400000
6748 15919 6775 1 109.50000 418.400000
6748 15919 8432 1 109.50000 418.400000
6748 15919 9231 1 109.50000 418.400000
6775 15919 8432 1 109.50000 418.400000
6775 15919 9231 1 109.50000 418.400000
8432 15919 9231 1 109.50000 418.400000
590 15920 3761 1 109.50000 418.400000
590 15920 8966 1 109.50000 418.400000
590 15920 10235 1 109.50000 418.400000
3761 15920 8966 1 109.50000 418.400000
3761 15920 10235 1 109.50000 418.400000
8966 15920 10235 1 109.50000 418.400000
72 15921 5126 1 109.50000 418.400000
72 15921 8720 1 109.50000 418.400000
72 15921 11034 1 109.50000 418.400000
5126 15921 8720 1 109.50000 418.400000
5126 15921 11034 1 109.50000 418.400000
8720 15921 11034 1 109.50000 418.400000
3362 15922 6823 1 109.50000 418.400000
3362 15922 8429 1 109.50000 418.400000
3362 15922 8431 1 109.50000 418.400000
6823 15922 8429 1 109.50000 418.400000
6823 15922 8431 1 109.50000 418.400000
8429 15922 8431 1 109.50000 418.400000
3576 15923 4257 1 109.50000 418.400000
3576 15923 6043 1 109.50000 418.400000
3576 15923 10845 1 109.50000 418.400000
4257 15923 6043 1 109.50000 418.400000
4257 15923 10845 1 109.50000 418.400000
6043 15923 10845 1 109.50000 418.400000
2155 15924 7531 1 109.50000 418.400000
2155 15924 7592 1 109.50000 418.400000
2155 15924 10615 1 109.50000 418.400000
7531 15924 7592 1 109.50000 418.400000
7531 15924 10615 1 109.50000 418.400000
7592 15924 10615 1 109.50000 418.400000
4682 15925 6393 1 109.50000 418.400000
4682 15925 6866 1 109.50000 418.400000
4682 15925 10754 1 109.50000 418.400000
6393 15925 6866 1 109.50000 418.400000
6393 15925 10754 1 109.50000 418.400000
6866 15925 10754 1 109.50000 418.400000
4718 15926 6260 1 109.50000 418.400000
4718 15926 6805 1 109.50000 418.400000
4718 15926 10922 1 109.50000 418.400000
6260 15926 6805 1 109.50000 418.400000
6260 15926 10922 1 109.50000 418.400000
6805 15926 10922 1 109.50000 418.400000
1442 15927 8676 1 109.50000 418.400000
1442 15927 10967 1 109.50000 418.400000
1442 15927 10997 1 109.50000 418.400000
8676 15927 10967 1 109.50000 418.400000
8676 15927 10997 1 109.50000 418.400000
10967 15927 10997 1 109.50000 418.400000
3066 15928 5551 1 109.50000 418.400000
3066 15928 8013 1 109.50000 418.400000
3066 15928 9808 1 109.50000 418.400000
5551 15928 8013 1 109.50000 418.400000
5551 15928 9808 1 109.50000 418.400000
8013 15928 9808 1 109.50000 418.400000
7338 15929 8532 1 109.50000 418.400000
7338 15929 9895 1 109.50000 418.400000
7338 15929 11098 1 109.50000 418.400000
8532 15929 9895 1 109.50000 418.400000
8532 15929 11098 1 109.50000 418.400000
9895 15929 11098 1 109.50000 418.400000
525 15930 969 1 109.50000 418.400000
525 15930 5525 1 109.50000 418.400000
525 15930 6559 1 109.50000 418.400000
969 15930 5525 1 109.50000 418.400000
969 15930 6559 1 109.50000 418.400000
5525 15930 6559 1 109.50000 418.400000
5012 15931 5013 1 109.50000 418.400000
5012 15931 7621 1 109.50000 418.400000
5012 15931 7828 1 109.50000 418.400000
5013 15931 7621 1 109.50000 418.400000
5013 15931 7828 1 109.50000 418.400000
7621 15931 7828 1 109.50000 418.400000
7192 15932 8326 1 109.50000 418.400000
7192 15932 10650 1 109.50000 418.400000
7192 15932 10716 1 109.50000 418.400000
8326 15932 10650 1 109.50000 418.400000
8326 15932 10716 1 109.50000 418.400000
10650 15932 10716 1 109.50000 418.400000
2950 15933 5643 1 109.50000 418.400000
2950 15933 10980 1 109.50000 418.400000
2950 15933 10981 1 109.50000 418.400000
5643 15933 10980 1 109.50000 418.400000
5643 15933 10981 1 109.50000 418.400000
10980 15933 10981 1 109.50000 418.400000
2694 15934 7097 1 109.50000 418.400000
2694 15934 9966 1 109.50000 418.400000
2694 15934 11041 1 109.50000 418.400000
7097 15934 9966 1 109.50000 418.400000
7097 15934 11041 1 109.50000 418.400000
9966 15934 11041 1 109.50000 418.400000
862 15935 1274 1 109.50000 418.400000
862 15935 1914 1 109.50000 418.400000
862 15935 10577 1 109.50000 418.400000
1274 15935 1914 1 109.50000 418.400000
1274 15935 10577 1 109.50000 418.400000
1914 15935 10577 1 109.50000 418.400000
1780 15936 3555 1 109.50000 418.400000
1780 15936 8772 1 109.50000 418.400000
1780 15936 8940 1 109.50000 418.400000
3555 15936 8772 1 109.50000 418.400000
3555 15936 8940 1 109.50000 418.400000
8772 15936 8940 1 109.50000 418.400000
1348 15937 1459 1 109.50000 418.400000
1348 15937 4992 1 109.50000 418.400000
1348 15937 8734 1 109.50000 418.400000
1459 15937 4992 1 109.50000 418.400000
1459 15937 8734 1 109.50000 418.400000
4992 15937 8734 1 109.50000 418.400000
4911 15938 4948 1 109.50000 418.400000
4911 15938 6213 1 109.50000 418.400000
4911 15938 7216 1 109.50000 418.400000
4948 15938 6213 1 109.50000 418.400000
4948 15938 7216 1 109.50000 418.400000
6213 15938 7216 1 109.50000 418.400000
1562 15939 7902 1 109.50000 418.400000
1562 15939 8187 1 109.50000 418.400000
1562 15939 11099 1 109.50000 418.400000
7902 15939 8187 1 109.50000 418.400000
7902 15939 11099 1 109.50000 418.400000
8187 15939 11099 1 109.50000 418.400000
212 15940 1875 1 109.50000 418.400000
212 15940 10098 1 109.50000 418.400000
212 15940 11100 1 109.50000 418.400000
1875 15940 10098 1 109.50000 418.400000
1875 15940 11100 1 109.50000 418.400000
10098 15940 11100 1 109.50000 418.400000
481 15941 7280 1 109.50000 418.400000
481 15941 9238 1 109.50000 418.400000
481 15941 10557 1 109.50000 418.400000
7280 15941 9238 1 109.50000 418.400000
7280 15941 10557 1 109.50000 418.400000
9238 15941 10557 1 109.50000 418.400000
3413 15942 7957 1 109.50000 418.400000
3413 15942 11101 1 109.50000 418.400000
3413 15942 11102 1 109.50000 418.400000
7957 15942 11101 1 109.50000 418.400000
7957 15942 11102 1 109.50000 418.400000
11101 15942 11102 1 109.50000 418.400000
355 15943 3513 1 109.50000 418.400000
355 15943 3829 1 109.50000 418.400000
355 15943 11103 1 109.50000 418.400000
3513 15943 3829 1 109.50000 418.400000
3513 15943 11103 1 109.50000 418.400000
3829 15943 11103 1 109.50000 418.400000
7951 15944 8929 1 109.50000 418.400000
7951 15944 11074 1 109.50000 418.400000
7951 15944 11104 1 109.50000 418.400000
8929 15944 11074 1 109.50000 418.400000
8929 15944 11104 1 109.50000 418.400000
11074 15944 11104 1 109.50000 418.400000
2193 15945 4831 1 109.50000 418.400000
2193 15945 8666 1 109.50000 418.400000
2193 15945 8826 1 109.50000 418.400000
4831 15945 8666 1 109.50000 418.400000
4831 15945 8826 1 109.50000 418.400000
8666 15945 8826 1 109.50000 418.400000
1928 15946 6167 1 109.50000 418.400000
1928 15946 7245 1 109.50000 418.400000
1928 15946 11105 1 109.50000 418.400000
6167 15946 7245 1 109.50000 418.400000
6167 15946 11105 1 109.50000 418.400000
7245 15946 11105 1 109.50000 418.400000
790 15947 8671 1 109.50000 418.400000
790 15947 8984 1 109.50000 418.400000
790 15947 11106 1 109.50000 418.400000
8671 15947 8984 1 109.50000 418.400000
8671 15947 11106 1 109.50000 418.400000
8984 15947 11106 1 109.50000 418.400000
3587 15948 4365 1 109.50000 418.400000
3587 15948 6308 1 109.50000 418.400000
3587 15948 7463 1 109.50000 418.400000
4365 15948 6308 1 109.50000 418.400000
4365 15948 7463 1 109.50000 418.400000
6308 15948 7463 1 109.50000 418.400000
197 15949 9584 1 109.50000 418.400000
197 15949 10623 1 109.50000 418.400000
197 15949 11107 1 109.50000 418.400000
9584 15949 10623 1 109.50000 418.400000
9584 15949 11107 1 109.50000 418.400000
10623 15949 11107 1 109.50000 418.400000
2271 15950 6811 1 109.50000 418.400000
2271 15950 10117 1 109.50000 418.400000
2271 15950 10628 1 109.50000 418.400000
6811 15950 10117 1 109.50000 418.400000
6811 15950 10628 1 109.50000 418.400000
10117 15950 10628 1 109.50000 418.400000
5057 15951 6019 1 109.50000 418.400000
5057 15951 6189 1 109.50000 418.400000
5057 15951 8900 1 109.50000 418.400000
6019 15951 6189 1 109.50000 418.400000
6019 15951 8900 1 109.50000 418.400000
6189 15951 8900 1 109.50000 418.400000
5059 15952 8895 1 109.50000 418.400000
5059 15952 10077 1 109.50000 418.400000
5059 15952 11073 1 109.50000 418.400000
8895 15952 10077 1 109.50000 418.400000
8895 15952 11073 1 109.50000 418.400000
10077 15952 11073 1 109.50000 418.400000
223 15953 6437 1 109.50000 418.400000
223 15953 9978 1 109.50000 418.400000
223 15953 10023 1 109.50000 418.400000
6437 15953 9978 1 109.50000 418.400000
6437 15953 10023 1 109.50000 418.400000
9978 15953 10023 1 109.50000 418.400000
8867 15954 10043 1 109.50000 418.400000
8867 15954 10954 1 109.50000 418.400000
8867 15954 11216 1 109.50000 418.400000
10043 15954 10954 1 109.50000 418.400000
10043 15954 11216 1 109.50000 418.400000
10954 15954 11216 1 109.50000 418.400000
4125 15955 10512 1 109.50000 418.400000
4125 15955 10992 1 109.50000 418.400000
4125 15955 11083 1 109.50000 418.400000
10512 15955 10992 1 109.50000 418.400000
10512 15955 11083 1 109.50000 418.400000
10992 15955 11083 1 109.50000 418.400000
4021 15956 6994 1 109.50000 418.400000
4021 15956 8603 1 109.50000 418.400000
4021 15956 11108 1 109.50000 418.400000
6994 15956 8603 1 109.50000 418.400000
6994 15956 11108 1 109.50000 418.400000
8603 15956 11108 1 109.50000 418.400000
4027 15957 4145 1 109.50000 418.400000
4027 15957 10684 1 109.50000 418.400000
4027 15957 11107 1 109.50000 418.400000
4145 15957 10684 1 109.50000 418.400000
4145 15957 11107 1 109.50000 418.400000
10684 15957 11107 1 109.50000 418.400000
934 15958 1361 1 109.50000 418.400000
934 15958 8687 1 109.50000 418.400000
934 15958 9354 1 109.50000 418.400000
1361 15958 8687 1 109.50000 418.400000
1361 15958 9354 1 109.50000 418.400000
8687 15958 9354 1 109.50000 418.400000
1446 15959 8380 1 109.50000 418.400000
1446 15959 11021 1 109.50000 418.400000
1446 15959 11098 1 109.50000 418.400000
8380 15959 11021 1 109.50000 418.400000
8380 15959 11098 1 109.50000 418.400000
11021 15959 11098 1 109.50000 418.400000
1920 15960 8426 1 109.50000 418.400000
1920 15960 8427 1 109.50000 418.400000
1920 15960 8428 1 109.50000 418.400000
8426 15960 8427 1 109.50000 418.400000
8426 15960 8428 1 109.50000 418.400000
8427 15960 8428 1 109.50000 418.400000
2710 15961 4978 1 109.50000 418.400000
2710 15961 6332 1 109.50000 418.400000
2710 15961 11104 1 109.50000 418.400000
4978 15961 6332 1 109.50000 418.400000
4978 15961 11104 1 109.50000 418.400000
6332 15961 11104 1 109.50000 418.400000
459 15962 817 1 109.50000 418.400000
459 15962 8365 1 109.50000 418.400000
459 15962 10833 1 109.50000 418.400000
817 15962 8365 1 109.50000 418.400000
817 15962 10833 1 109.50000 418.400000
8365 15962 10833 1 109.50000 418.400000
1415 15963 7911 1 109.50000 418.400000
1415 15963 10264 1 109.50000 418.400000
1415 15963 11109 1 109.50000 418.400000
7911 15963 10264 1 109.50000 418.400000
7911 15963 11109 1 109.50000 418.400000
10264 15963 11109 1 109.50000 418.400000
9100 15964 9146 1 109.50000 418.400000
9100 15964 9960 1 109.50000 418.400000
9100 15964 11046 1 109.50000 418.400000
9146 15964 9960 1 109.50000 418.400000
9146 15964 11046 1 109.50000 418.400000
9960 15964 11046 1 109.50000 418.400000
5919 15965 9644 1 109.50000 418.400000
5919 15965 11042 1 109.50000 418.400000
5919 15965 11110 1 109.50000 418.400000
9644 15965 11042 1 109.50000 418.400000
9644 15965 11110 1 109.50000 418.400000
11042 15965 11110 1 109.50000 418.400000
2194 15966 2195 1 109.50000 418.400000
2194 15966 7368 1 109.50000 418.400000
2194 15966 10609 1 109.50000 418.400000
2195 15966 7368 1 109.50000 418.400000
2195 15966 10609 1 109.50000 418.400000
7368 15966 10609 1 109.50000 418.400000
5995 15967 8663 1 109.50000 418.400000
5995 15967 10394 1 109.50000 418.400000
5995 15967 10892 1 109.50000 418.400000
8663 15967 10394 1 109.50000 418.400000
8663 15967 10892 1 109.50000 418.400000
10394 15967 10892 1 109.50000 418.400000
6575 15968 8460 1 109.50000 418.400000
6575 15968 8461 1 109.50000 418.400000
6575 15968 10172 1 109.50000 418.400000
8460 15968 8461 1 109.50000 418.400000
8460 15968 10172 1 109.50000 418.400000
8461 15968 10172 1 109.50000 418.400000
4195 15969 4251 1 109.50000 418.400000
4195 15969 5222 1 109.50000 418.400000
4195 15969 10910 1 109.50000 418.400000
4251 15969 5222 1 109.50000 418.400000
4251 15969 10910 1 109.50000 418.400000
5222 15969 10910 1 109.50000 418.400000
1113 15970 1114 1 109.50000 418.400000
1113 15970 1314 1 109.50000 418.400000
1113 15970 6693 1 109.50000 418.400000
1114 15970 1314 1 109.50000 418.400000
1114 15970 6693 1 109.50000 418.400000
1314 15970 6693 1 109.50000 418.400000
2557 15971 2928 1 109.50000 418.400000
2557 15971 6921 1 109.50000 418.400000
2557 15971 10942 1 109.50000 418.400000
2928 15971 6921 1 109.50000 418.400000
2928 15971 10942 1 109.50000 418.400000
6921 15971 10942 1 109.50000 418.400000
10707 15972 10844 1 109.50000 418.400000
10707 15972 11027 1 109.50000 418.400000
10707 15972 11111 1 109.50000 418.400000
10844 15972 11027 1 109.50000 418.400000
10844 15972 11111 1 109.50000 418.400000
11027 15972 11111 1 109.50000 418.400000
4916 15973 7700 1 109.50000 418.400000
4916 15973 9309 1 109.50000 418.400000
4916 15973 11103 1 109.50000 418.400000
7700 15973 9309 1 109.50000 418.400000
7700 15973 11103 1 109.50000 418.400000
9309 15973 11103 1 109.50000 418.400000
3110 15974 7832 1 109.50000 418.400000
3110 15974 8559 1 109.50000 418.400000
3110 15974 10610 1 109.50000 418.400000
7832 15974 8559 1 109.50000 418.400000
7832 15974 10610 1 109.50000 418.400000
8559 15974 10610 1 109.50000 418.400000
3162 15975 5481 1 109.50000 418.400000
3162 15975 6512 1 109.50000 418.400000
3162 15975 7360 1 109.50000 418.400000
5481 15975 6512 1 109.50000 418.400000
5481 15975 7360 1 109.50000 418.400000
6512 15975 7360 1 109.50000 418.400000
227 15976 4639 1 109.50000 418.400000
227 15976 4910 1 109.50000 418.400000
227 15976 11001 1 109.50000 418.400000
4639 15976 4910 1 109.50000 418.400000
4639 15976 11001 1 109.50000 418.400000
4910 15976 11001 1 109.50000 418.400000
10542 15977 10706 1 109.50000 418.400000
10542 15977 11067 1 109.50000 418.400000
10542 15977 11112 1 109.50000 418.400000
10706 15977 11067 1 109.50000 418.400000
10706 15977 11112 1 109.50000 418.400000
11067 15977 11112 1 109.50000 418.400000
3676 15978 10932 1 109.50000 418.400000
3676 15978 11092 1 109.50000 418.400000
3676 15978 11113 1 109.50000 418.400000
10932 15978 11092 1 109.50000 418.400000
10932 15978 11113 1 109.50000 418.400000
11092 15978 11113 1 109.50000 418.400000
7583 15979 9243 1 109.50000 418.400000
7583 15979 10525 1 109.50000 418.400000
7583 15979 11114 1 109.50000 418.400000
9243 15979 10525 1 109.50000 418.400000
9243 15979 11114 1 109.50000 418.400000
10525 15979 11114 1 109.50000 418.400000
6776 15980 7030 1 109.50000 418.400000
6776 15980 10284 1 109.50000 418.400000
6776 15980 11030 1 109.50000 418.400000
7030 15980 10284 1 109.50000 418.400000
7030 15980 11030 1 109.50000 418.400000
10284 15980 11030 1 109.50000 418.400000
3557 15981 4786 1 109.50000 418.400000
3557 15981 5423 1 109.50000 418.400000
3557 15981 5869 1 109.50000 418.400000
4786 15981 5423 1 109.50000 418.400000
4786 15981 5869 1 109.50000 418.400000
5423 15981 5869 1 109.50000 418.400000
4531 15982 6578 1 109.50000 418.400000
4531 15982 7072 1 109.50000 418.400000
4531 15982 11106 1 109.50000 418.400000
6578 15982 7072 1 109.50000 418.400000
6578 15982 11106 1 109.50000 418.400000
7072 15982 11106 1 109.50000 418.400000
863 15983 2511 1 109.50000 418.400000
863 15983 9891 1 109.50000 418.400000
863 15983 11060 1 109.50000 418.400000
2511 15983 9891 1 109.50000 418.400000
2511 15983 11060 1 109.50000 418.400000
9891 15983 11060 1 109.50000 418.400000
527 15984 9008 1 109.50000 418.400000
527 15984 10986 1 109.50000 418.400000
527 15984 11026 1 109.50000 418.400000
9008 15984 10986 1 109.50000 418.400000
9008 15984 11026 1 109.50000 418.400000
10986 15984 11026 1 109.50000 418.400000
2520 15985 8218 1 109.50000 418.400000
2520 15985 8931 1 109.50000 418.400000
2520 15985 9387 1 109.50000 418.400000
8218 15985 8931 1 109.50000 418.400000
8218 15985 9387 1 109.50000 418.400000
8931 15985 9387 1 109.50000 418.400000
5324 15986 7154 1 109.50000 418.400000
5324 15986 8979 1 109.50000 418.400000
5324 15986 10556 1 109.50000 418.400000
7154 15986 8979 1 109.50000 418.400000
7154 15986 10556 1 109.50000 418.400000
8979 15986 10556 1 109.50000 418.400000
5819 15987 8576 1 109.50000 418.400000
5819 15987 10065 1 109.50000 418.400000
5819 15987 11115 1 109.50000 418.400000
8576 15987 10065 1 109.50000 418.400000
8576 15987 11115 1 109.50000 418.400000
10065 15987 11115 1 109.50000 418.400000
1818 15988 2863 1 109.50000 418.400000
1818 15988 3073 1 109.50000 418.400000
1818 15988 10891 1 109.50000 418.400000
2863 15988 3073 1 109.50000 418.400000
2863 15988 10891 1 109.50000 418.400000
3073 15988 10891 1 109.50000 418.400000
5332 15989 9586 1 109.50000 418.400000
5332 15989 10788 1 109.50000 418.400000
5332 15989 11063 1 109.50000 418.400000
9586 15989 10788 1 109.50000 418.400000
9586 15989 11063 1 109.50000 418.400000
10788 15989 11063 1 109.50000 418.400000
997 15990 4485 1 109.50000 418.400000
997 15990 8556 1 109.50000 418.400000
997 15990 10225 1 109.50000 418.400000
4485 15990 8556 1 109.50000 418.400000
4485 15990 10225 1 109.50000 418.400000
8556 15990 10225 1 109.50000 418.400000
2711 15991 4976 1 109.50000 418.400000
2711 15991 9912 1 109.50000 418.400000
2711 15991 11117 1 109.50000 418.400000
4976 15991 9912 1 109.50000 418.400000
4976 15991 11117 1 109.50000 418.400000
9912 15991 11117 1 109.50000 418.400000
572 15992 1188 1 109.50000 418.400000
572 15992 8563 1 109.50000 418.400000
572 15992 10972 1 109.50000 418.400000
1188 15992 8563 1 109.50000 418.400000
1188 15992 10972 1 109.50000 418.400000
8563 15992 10972 1 109.50000 418.400000
680 15993 1538 1 109.50000 418.400000
680 15993 6543 1 109.50000 418.400000
680 15993 8073 1 109.50000 418.400000
1538 15993 6543 1 109.50000 418.400000
1538 15993 8073 1 109.50000 418.400000
6543 15993 8073 1 109.50000 418.400000
1651 15994 8398 1 109.50000 418.400000
1651 15994 8564 1 109.50000 418.400000
1651 15994 11069 1 109.50000 418.400000
8398 15994 8564 1 109.50000 418.400000
8398 15994 11069 1 109.50000 418.400000
8564 15994 11069 1 109.50000 418.400000
4549 15995 6861 1 109.50000 418.400000
4549 15995 8819 1 109.50000 418.400000
4549 15995 11093 1 109.50000 418.400000
6861 15995 8819 1 109.50000 418.400000
6861 15995 11093 1 109.50000 418.400000
8819 15995 11093 1 109.50000 418.400000
3694 15996 4683 1 109.50000 418.400000
3694 15996 8517 1 109.50000 418.400000
3694 15996 11118 1 109.50000 418.400000
4683 15996 8517 1 109.50000 418.400000
4683 15996 11118 1 109.50000 418.400000
8517 15996 11118 1 109.50000 418.400000
8240 15997 8242 1 109.50000 418.400000
8240 15997 9782 1 109.50000 418.400000
8240 15997 10044 1 109.50000 418.400000
8242 15997 9782 1 109.50000 418.400000
8242 15997 10044 1 109.50000 418.400000
9782 15997 10044 1 109.50000 418.400000
1108 15998 2925 1 109.50000 418.400000
1108 15998 6072 1 109.50000 418.400000
1108 15998 6322 1 109.50000 418.400000
2925 15998 6072 1 109.50000 418.400000
2925 15998 6322 1 109.50000 418.400000
6072 15998 6322 1 109.50000 418.400000
2951 15999 2952 1 109.50000 418.400000
2951 15999 2953 1 109.50000 418.400000
2951 15999 2954 1 109.50000 418.400000
2952 15999 2953 1 109.50000 418.400000
2952 15999 2954 1 109.50000 418.400000
2953 15999 2954 1 109.50000 418.400000
8605 16000 8693 1 109.50000 418.400000
8605 16000 9171 1 109.50000 418.400000
8605 16000 11119 1 109.50000 418.400000
8693 16000 9171 1 109.50000 418.400000
8693 16000 11119 1 109.50000 418.400000
9171 16000 11119 1 109.50000 418.400000
5103 16001 10078 1 109.50000 418.400000
5103 16001 11102 1 109.50000 418.400000
5103 16001 11120 1 109.50000 418.400000
10078 16001 11102 1 109.50000 418.400000
10078 16001 11120 1 109.50000 418.400000
11102 16001 11120 1 109.50000 418.400000
1726 16002 2981 1 109.50000 418.400000
1726 16002 7778 1 109.50000 418.400000
1726 16002 10651 1 109.50000 418.400000
2981 16002 7778 1 109.50000 418.400000
2981 16002 10651 1 109.50000 418.400000
7778 16002 10651 1 109.50000 418.400000
5500 16003 7929 1 109.50000 418.400000
5500 16003 9783 1 109.50000 418.400000
5500 16003 10914 1 109.50000 418.400000
7929 16003 9783 1 109.50000 418.400000
7929 16003 10914 1 109.50000 418.400000
9783 16003 10914 1 109.50000 418.400000
29 16004 782 1 109.50000 418.400000
29 16004 11070 1 109.50000 418.400000
29 16004 11121 1 109.50000 418.400000
782 16004 11070 1 109.50000 418.400000
782 16004 11121 1 109.50000 418.400000
11070 16004 11121 1 109.50000 418.400000
3027 16005 6288 1 109.50000 418.400000
3027 16005 9017 1 109.50000 418.400000
3027 16005 10363 1 109.50000 418.400000
6288 16005 9017 1 109.50000 418.400000
6288 16005 10363 1 109.50000 418.400000
9017 16005 10363 1 109.50000 418.400000
5839 16006 5840 1 109.50000 418.400000
5839 16006 5841 1 109.50000 418.400000
5839 16006 5842 1 109.50000 418.400000
5840 16006 5841 1 109.50000 418.400000
5840 16006 5842 1 109.50000 418.400000
5841 16006 5842 1 109.50000 418.400000
7782 16007 10299 1 109.50000 418.400000
7782 16007 10420 1 109.50000 418.400000
7782 16007 10872 1 109.50000 418.400000
10299 16007 10420 1 109.50000 418.400000
10299 16007 10872 1 109.50000 418.400000
10420 16007 10872 1 109.50000 418.400000
989 16008 3441 1 109.50000 418.400000
989 16008 4555 1 109.50000 418.400000
989 16008 11005 1 109.50000 418.400000
3441 16008 4555 1 109.50000 418.400000
3441 16008 11005 1 109.50000 418.400000
4555 16008 11005 1 109.50000 418.400000
1706 16009 2034 1 109.50000 418.400000
1706 16009 3366 1 109.50000 418.400000
1706 16009 8133 1 109.50000 418.400000
2034 16009 3366 1 109.50000 418.400000
2034 16009 8133 1 109.50000 418.400000
3366 16009 8133 1 109.50000 418.400000
3198 16010 8534 1 109.50000 418.400000
3198 16010 9524 1 109.50000 418.400000
3198 16010 9845 1 109.50000 418.400000
8534 16010 9524 1 109.50000 418.400000
8534 16010 9845 1 109.50000 418.400000
9524 16010 9845 1 109.50000 418.400000
1146 16011 2648 1 109.50000 418.400000
1146 16011 2649 1 109.50000 418.400000
1146 16011 5400 1 109.50000 418.400000
2648 16011 2649 1 109.50000 418.400000
2648 16011 5400 1 109.50000 418.400000
2649 16011 5400 1 109.50000 418.400000
825 16012 826 1 109.50000 418.400000
825 16012 8046 1 109.50000 418.400000
825 16012 8595 1 109.50000 418.400000
826 16012 8046 1 109.50000 418.400000
826 16012 8595 1 109.50000 418.400000
8046 16012 8595 1 109.50000 418.400000
3697 16013 5445 1 109.50000 418.400000
3697 16013 5931 1 109.50000 418.400000
3697 16013 9762 1 109.50000 418.400000
5445 16013 5931 1 109.50000 418.400000
5445 16013 9762 1 109.50000 418.400000
5931 16013 9762 1 109.50000 418.400000
6290 16014 6374 1 109.50000 418.400000
6290 16014 7955 1 109.50000 418.400000
6290 16014 8488 1 109.50000 418.400000
6374 16014 7955 1 109.50000 418.400000
6374 16014 8488 1 109.50000 418.400000
7955 16014 8488 1 109.50000 418.400000
6268 16015 8904 1 109.50000 418.400000
6268 16015 10127 1 109.50000 418.400000
6268 16015 11109 1 109.50000 418.400000
8904 16015 10127 1 109.50000 418.400000
8904 16015 11109 1 109.50000 418.400000
10127 16015 11109 1 109.50000 418.400000
1596 16016 3116 1 109.50000 418.400000
1596 16016 7715 1 109.50000 418.400000
1596 16016 8738 1 109.50000 418.400000
3116 16016 7715 1 109.50000 418.400000
3116 16016 8738 1 109.50000 418.400000
7715 16016 8738 1 109.50000 418.400000
419 16017 1168 1 109.50000 418.400000
419 16017 4116 1 109.50000 418.400000
419 16017 9673 1 109.50000 418.400000
1168 16017 4116 1 109.50000 418.400000
1168 16017 9673 1 109.50000 418.400000
4116 16017 9673 1 109.50000 418.400000
5496 16018 7539 1 109.50000 418.400000
5496 16018 9565 1 109.50000 418.400000
5496 16018 11013 1 109.50000 418.400000
7539 16018 9565 1 109.50000 418.400000
7539 16018 11013 1 109.50000 418.400000
9565 16018 11013 1 109.50000 418.400000
920 16019 8578 1 109.50000 418.400000
920 16019 11055 1 109.50000 418.400000
920 16019 11122 1 109.50000 418.400000
8578 16019 11055 1 109.50000 418.400000
8578 16019 11122 1 109.50000 418.400000
11055 16019 11122 1 109.50000 418.400000
1458 16020 5012 1 109.50000 418.400000
1458 16020 10734 1 109.50000 418.400000
1458 16020 11076 1 109.50000 418.400000
5012 16020 10734 1 109.50000 418.400000
5012 16020 11076 1 109.50000 418.400000
10734 16020 11076 1 109.50000 418.400000
2538 16021 6352 1 109.50000 418.400000
2538 16021 6530 1 109.50000 418.400000
2538 16021 7018 1 109.50000 418.400000
6352 16021 6530 1 109.50000 418.400000
6352 16021 7018 1 109.50000 418.400000
6530 16021 7018 1 109.50000 418.400000
1966 16022 3814 1 109.50000 418.400000
1966 16022 10103 1 109.50000 418.400000
1966 16022 11123 1 109.50000 418.400000
3814 16022 10103 1 109.50000 418.400000
3814 16022 11123 1 109.50000 418.400000
10103 16022 11123 1 109.50000 418.400000
2098 16023 2099 1 109.50000 418.400000
2098 16023 5776 1 109.50000 418.400000
2098 16023 10419 1 109.50000 418.400000
2099 16023 5776 1 109.50000 418.400000
2099 16023 10419 1 109.50000 418.400000
5776 16023 10419 1 109.50000 418.400000
3062 16024 5161 1 109.50000 418.400000
3062 16024 5162 1 109.50000 418.400000
3062 16024 10984 1 109.50000 418.400000
5161 16024 5162 1 109.50000 418.400000
5161 16024 10984 1 109.50000 418.400000
5162 16024 10984 1 109.50000 418.400000
4205 16025 7226 1 109.50000 418.400000
4205 16025 9368 1 109.50000 418.400000
4205 16025 11010 1 109.50000 418.400000
7226 16025 9368 1 109.50000 418.400000
7226 16025 11010 1 109.50000 418.400000
9368 16025 11010 1 109.50000 418.400000
994 16026 6005 1 109.50000 418.400000
994 16026 10929 1 109.50000 418.400000
994 16026 10960 1 109.50000 418.400000
6005 16026 10929 1 109.50000 418.400000
6005 16026 10960 1 109.50000 418.400000
10929 16026 10960 1 109.50000 418.400000
2934 16027 9186 1 109.50000 418.400000
2934 16027 10261 1 109.50000 418.400000
2934 16027 10351 1 109.50000 418.400000
9186 16027 10261 1 109.50000 418.400000
9186 16027 10351 1 109.50000 418.400000
10261 16027 10351 1 109.50000 418.400000
1656 16028 5198 1 109.50000 418.400000
1656 16028 8110 1 109.50000 418.400000
1656 16028 9833 1 109.50000 418.400000
5198 16028 8110 1 109.50000 418.400000
5198 16028 9833 1 109.50000 418.400000
8110 16028 9833 1 109.50000 418.400000
2619 16029 3128 1 109.50000 418.400000
2619 16029 7023 1 109.50000 418.400000
2619 16029 10965 1 109.50000 418.400000
3128 16029 7023 1 109.50000 418.400000
3128 16029 10965 1 109.50000 418.400000
7023 16029 10965 1 109.50000 418.400000
428 16030 4508 1 109.50000 418.400000
428 16030 5681 1 109.50000 418.400000
428 16030 11087 1 109.50000 418.400000
4508 16030 5681 1 109.50000 418.400000
4508 16030 11087 1 109.50000 418.400000
5681 16030 11087 1 109.50000 418.400000
4414 16031 5987 1 109.50000 418.400000
4414 16031 8401 1 109.50000 418.400000
4414 16031 10624 1 109.50000 418.400000
5987 16031 8401 1 109.50000 418.400000
5987 16031 10624 1 109.50000 418.400000
8401 16031 10624 1 109.50000 418.400000
5015 16032 7322 1 109.50000 418.400000
5015 16032 7889 1 109.50000 418.400000
5015 16032 10973 1 109.50000 418.400000
7322 16032 7889 1 109.50000 418.400000
7322 16032 10973 1 109.50000 418.400000
7889 16032 10973 1 109.50000 418.400000
3411 16033 10079 1 109.50000 418.400000
3411 16033 10680 1 109.50000 418.400000
3411 16033 11053 1 109.50000 418.400000
10079 16033 10680 1 109.50000 418.400000
10079 16033 11053 1 109.50000 418.400000
10680 16033 11053 1 109.50000 418.400000
2940 16034 4320 1 109.50000 418.400000
2940 16034 4652 1 109.50000 418.400000
2940 16034 9735 1 109.50000 418.400000
4320 16034 4652 1 109.50000 418.400000
4320 16034 9735 1 109.50000 418.400000
4652 16034 9735 1 109.50000 418.400000
520 16035 2176 1 109.50000 418.400000
520 16035 2178 1 109.50000 418.400000
520 16035 11124 1 109.50000 418.400000
2176 16035 2178 1 109.50000 418.400000
2176 16035 11124 1 109.50000 418.400000
2178 16035 11124 1 109.50000 418.400000
10377 16036 10639 1 109.50000 418.400000
10377 16036 11054 1 109.50000 418.400000
10377 16036 11115 1 109.50000 418.400000
10639 16036 11054 1 109.50000 418.400000
10639 16036 11115 1 109.50000 418.400000
11054 16036 11115 1 109.50000 418.400000
3837 16037 7972 1 109.50000 418.400000
3837 16037 7973 1 109.50000 418.400000
3837 16037 7974 1 109.50000 418.400000
7972 16037 7973 1 109.50000 418.400000
7972 16037 7974 1 109.50000 418.400000
7973 16037 7974 1 109.50000 418.400000
85 16038 2406 1 109.50000 418.400000
85 16038 6731 1 109.50000 418.400000
85 16038 10062 1 109.50000 418.400000
2406 16038 6731 1 109.50000 418.400000
2406 16038 10062 1 109.50000 418.400000
6731 16038 10062 1 109.50000 418.400000
3489 16039 9205 1 109.50000 418.400000
3489 16039 10386 1 109.50000 418.400000
3489 16039 10907 1 109.50000 418.400000
9205 16039 10386 1 109.50000 418.400000
9205 16039 10907 1 109.50000 418.400000
10386 16039 10907 1 109.50000 418.400000
2108 16040 3589 1 109.50000 418.400000
2108 16040 5844 1 109.50000 418.400000
2108 16040 8994 1 109.50000 418.400000
3589 16040 5844 1 109.50000 418.400000
3589 16040 8994 1 109.50000 418.400000
5844 16040 8994 1 109.50000 418.400000
6648 16041 7954 1 109.50000 418.400000
6648 16041 10359 1 109.50000 418.400000
6648 16041 10537 1 109.50000 418.400000
7954 16041 10359 1 109.50000 418.400000
7954 16041 10537 1 109.50000 418.400000
10359 16041 10537 1 109.50000 418.400000
6778 16042 9546 1 109.50000 418.400000
6778 16042 9814 1 109.50000 418.400000
6778 16042 10510 1 109.50000 418.400000
9546 16042 9814 1 109.50000 418.400000
9546 16042 10510 1 109.50000 418.400000
9814 16042 10510 1 109.50000 418.400000
1543 16043 9207 1 109.50000 418.400000
1543 16043 9274 1 109.50000 418.400000
1543 16043 10850 1 109.50000 418.400000
9207 16043 9274 1 109.50000 418.400000
9207 16043 10850 1 109.50000 418.400000
9274 16043 10850 1 109.50000 418.400000
824 16044 6394 1 109.50000 418.400000
824 16044 10601 1 109.50000 418.400000
824 16044 11065 1 109.50000 418.400000
6394 16044 10601 1 109.50000 418.400000
6394 16044 11065 1 109.50000 418.400000
10601 16044 11065 1 109.50000 418.400000
1284 16045 1285 1 109.50000 418.400000
1284 16045 5949 1 109.50000 418.400000
1284 16045 10699 1 109.50000 418.400000
1285 16045 5949 1 109.50000 418.400000
1285 16045 10699 1 109.50000 418.400000
5949 16045 10699 1 109.50000 418.400000
4105 16046 5215 1 109.50000 418.400000
4105 16046 9539 1 109.50000 418.400000
4105 16046 11018 1 109.50000 418.400000
5215 16046 9539 1 109.50000 418.400000
5215 16046 11018 1 109.50000 418.400000
9539 16046 11018 1 109.50000 418.400000
7523 16047 9123 1 109.50000 418.400000
7523 16047 10809 1 109.50000 418.400000
7523 16047 11082 1 109.50000 418.400000
9123 16047 10809 1 109.50000 418.400000
9123 16047 11082 1 109.50000 418.400000
10809 16047 11082 1 109.50000 418.400000
338 16048 4532 1 109.50000 418.400000
338 16048 8670 1 109.50000 418.400000
338 16048 9680 1 109.50000 418.400000
4532 16048 8670 1 109.50000 418.400000
4532 16048 9680 1 109.50000 418.400000
8670 16048 9680 1 109.50000 418.400000
382 16049 10509 1 109.50000 418.400000
382 16049 10796 1 109.50000 418.400000
382 16049 10978 1 109.50000 418.400000
10509 16049 10796 1 109.50000 418.400000
10509 16049 10978 1 109.50000 418.400000
10796 16049 10978 1 109.50000 418.400000
1295 16050 2041 1 109.50000 418.400000
1295 16050 3752 1 109.50000 418.400000
1295 16050 4326 1 109.50000 418.400000
2041 16050 3752 1 109.50000 418.400000
2041 16050 4326 1 109.50000 418.400000
3752 16050 4326 1 109.50000 418.400000
1449 16051 5760 1 109.50000 418.400000
1449 16051 5815 1 109.50000 418.400000
1449 16051 7336 1 109.50000 418.400000
5760 16051 5815 1 109.50000 418.400000
5760 16051 7336 1 109.50000 418.400000
5815 16051 7336 1 109.50000 418.400000
2173 16052 7382 1 109.50000 418.400000
2173 16052 8025 1 109.50000 418.400000
2173 16052 10039 1 109.50000 418.400000
7382 16052 8025 1 109.50000 418.400000
7382 16052 10039 1 109.50000 418.400000
8025 16052 10039 1 109.50000 418.400000
247 16053 587 1 109.50000 418.400000
247 16053 7961 1 109.50000 418.400000
247 16053 10709 1 109.50000 418.400000
587 16053 7961 1 109.50000 418.400000
587 16053 10709 1 109.50000 418.400000
7961 16053 10709 1 109.50000 418.400000
947 16054 2466 1 109.50000 418.400000
947 16054 6955 1 109.50000 418.400000
947 16054 9488 1 109.50000 418.400000
2466 16054 6955 1 109.50000 418.400000
2466 16054 9488 1 109.50000 418.400000
6955 16054 9488 1 109.50000 418.400000
4107 16055 8159 1 109.50000 418.400000
4107 16055 10436 1 109.50000 418.400000
4107 16055 11126 1 109.50000 418.400000
8159 16055 10436 1 109.50000 418.400000
8159 16055 11126 1 109.50000 418.400000
10436 16055 11126 1 109.50000 418.400000
2395 16056 2397 1 109.50000 418.400000
2395 16056 4283 1 109.50000 418.400000
2395 16056 8310 1 109.50000 418.400000
2397 16056 4283 1 109.50000 418.400000
2397 16056 8310 1 109.50000 418.400000
4283 16056 8310 1 109.50000 418.400000
364 16057 4503 1 109.50000 418.400000
364 16057 6325 1 109.50000 418.400000
364 16057 7134 1 109.50000 418.400000
4503 16057 6325 1 109.50000 418.400000
4503 16057 7134 1 109.50000 418.400000
6325 16057 7134 1 109.50000 418.400000
5435 16058 6804 1 109.50000 418.400000
5435 16058 7587 1 109.50000 418.400000
5435 16058 10921 1 109.50000 418.400000
6804 16058 7587 1 109.50000 418.400000
6804 16058 10921 1 109.50000 418.400000
7587 16058 10921 1 109.50000 418.400000
1103 16059 7537 1 109.50000 418.400000
1103 16059 10107 1 109.50000 418.400000
1103 16059 11127 1 109.50000 418.400000
7537 16059 10107 1 109.50000 418.400000
7537 16059 11127 1 109.50000 418.400000
10107 16059 11127 1 109.50000 418.400000
1079 16060 1890 1 109.50000 418.400000
1079 16060 7150 1 109.50000 418.400000
1079 16060 7759 1 109.50000 418.400000
1890 16060 7150 1 109.50000 418.400000
1890 16060 7759 1 109.50000 418.400000
7150 16060 7759 1 109.50000 418.400000
6328 16061 8332 1 109.50000 418.400000
6328 16061 9638 1 109.50000 418.400000
6328 16061 11128 1 109.50000 418.400000
8332 16061 9638 1 109.50000 418.400000
8332 16061 11128 1 109.50000 418.400000
9638 16061 11128 1 109.50000 418.400000
6278 16062 9381 1 109.50000 418.400000
6278 16062 10102 1 109.50000 418.400000
6278 16062 10897 1 109.50000 418.400000
9381 16062 10102 1 109.50000 418.400000
9381 16062 10897 1 109.50000 418.400000
10102 16062 10897 1 109.50000 418.400000
2980 16063 9149 1 109.50000 418.400000
2980 16063 11017 1 109.50000 418.400000
2980 16063 11129 1 109.50000 418.400000
9149 16063 11017 1 109.50000 418.400000
9149 16063 11129 1 109.50000 418.400000
11017 16063 11129 1 109.50000 418.400000
2477 16064 2479 1 109.50000 418.400000
2477 16064 3081 1 109.50000 418.400000
2477 16064 9339 1 109.50000 418.400000
2479 16064 3081 1 109.50000 418.400000
2479 16064 9339 1 109.50000 418.400000
3081 16064 9339 1 109.50000 418.400000
6061 16065 7684 1 109.50000 418.400000
6061 16065 10847 1 109.50000 418.400000
6061 16065 11031 1 109.50000 418.400000
7684 16065 10847 1 109.50000 418.400000
7684 16065 11031 1 109.50000 418.400000
10847 16065 11031 1 109.50000 418.400000
2634 16066 7729 1 109.50000 418.400000
2634 16066 9088 1 109.50000 418.400000
2634 16066 9868 1 109.50000 418.400000
7729 16066 9088 1 109.50000 418.400000
7729 16066 9868 1 109.50000 418.400000
9088 16066 9868 1 109.50000 418.400000
2828 16067 4120 1 109.50000 418.400000
2828 16067 9523 1 109.50000 418.400000
2828 16067 11114 1 109.50000 418.400000
4120 16067 9523 1 109.50000 418.400000
4120 16067 11114 1 109.50000 418.400000
9523 16067 11114 1 109.50000 418.400000
10579 16068 10887 1 109.50000 418.400000
10579 16068 11095 1 109.50000 418.400000
10579 16068 11097 1 109.50000 418.400000
10887 16068 11095 1 109.50000 418.400000
10887 16068 11097 1 109.50000 418.400000
11095 16068 11097 1 109.50000 418.400000
6241 16069 6351 1 109.50000 418.400000
6241 16069 6404 1 109.50000 418.400000
6241 16069 9875 1 109.50000 418.400000
6351 16069 6404 1 109.50000 418.400000
6351 16069 9875 1 109.50000 418.400000
6404 16069 9875 1 109.50000 418.400000
124 16070 2331 1 109.50000 418.400000
124 16070 8116 1 109.50000 418.400000
124 16070 11130 1 109.50000 418.400000
2331 16070 8116 1 109.50000 418.400000
2331 16070 11130 1 109.50000 418.400000
8116 16070 11130 1 109.50000 418.400000
8735 16071 10446 1 109.50000 418.400000
8735 16071 10733 1 109.50000 418.400000
8735 16071 11113 1 109.50000 418.400000
10446 16071 10733 1 109.50000 418.400000
10446 16071 11113 1 109.50000 418.400000
10733 16071 11113 1 109.50000 418.400000
2608 16072 3982 1 109.50000 418.400000
2608 16072 10848 1 109.50000 418.400000
2608 16072 11100 1 109.50000 418.400000
3982 16072 10848 1 109.50000 418.400000
3982 16072 11100 1 109.50000 418.400000
10848 16072 11100 1 109.50000 418.400000
3732 16073 10938 1 109.50000 418.400000
3732 16073 10989 1 109.50000 418.400000
3732 16073 11066 1 109.50000 418.400000
10938 16073 10989 1 109.50000 418.400000
10938 16073 11066 1 109.50000 418.400000
10989 16073 11066 1 109.50000 418.400000
2124 16074 3528 1 109.50000 418.400000
2124 16074 7972 1 109.50000 418.400000
2124 16074 10156 1 109.50000 418.400000
3528 16074 7972 1 109.50000 418.400000
3528 16074 10156 1 109.50000 418.400000
7972 16074 10156 1 109.50000 418.400000
1001 16075 4931 1 109.50000 418.400000
1001 16075 9451 1 109.50000 418.400000
1001 16075 10909 1 109.50000 418.400000
4931 16075 9451 1 109.50000 418.400000
4931 16075 10909 1 109.50000 418.400000
9451 16075 10909 1 109.50000 418.400000
2291 16076 9617 1 109.50000 418.400000
2291 16076 10215 1 109.50000 418.400000
2291 16076 10812 1 109.50000 418.400000
9617 16076 10215 1 109.50000 418.400000
9617 16076 10812 1 109.50000 418.400000
10215 16076 10812 1 109.50000 418.400000
4300 16077 4445 1 109.50000 418.400000
4300 16077 8557 1 109.50000 418.400000
4300 16077 11127 1 109.50000 418.400000
4445 16077 8557 1 109.50000 418.400000
4445 16077 11127 1 109.50000 418.400000
8557 16077 11127 1 109.50000 418.400000
3865 16078 5537 1 109.50000 418.400000
3865 16078 5668 1 109.50000 418.400000
3865 16078 8996 1 109.50000 418.400000
5537 16078 5668 1 109.50000 418.400000
5537 16078 8996 1 109.50000 418.400000
5668 16078 8996 1 109.50000 418.400000
5623 16079 9503 1 109.50000 418.400000
5623 16079 9924 1 109.50000 418.400000
5623 16079 11048 1 109.50000 418.400000
9503 16079 9924 1 109.50000 418.400000
9503 16079 11048 1 109.50000 418.400000
9924 16079 11048 1 109.50000 418.400000
4520 16080 8697 1 109.50000 418.400000
4520 16080 10827 1 109.50000 418.400000
4520 16080 11131 1 109.50000 418.400000
8697 16080 10827 1 109.50000 418.400000
8697 16080 11131 1 109.50000 418.400000
10827 16080 11131 1 109.50000 418.400000
4726 16081 7378 1 109.50000 418.400000
4726 16081 8319 1 109.50000 418.400000
4726 16081 8516 1 109.50000 418.400000
7378 16081 8319 1 109.50000 418.400000
7378 16081 8516 1 109.50000 418.400000
8319 16081 8516 1 109.50000 418.400000
1287 16082 1897 1 109.50000 418.400000
1287 16082 3833 1 109.50000 418.400000
1287 16082 10899 1 109.50000 418.400000
1897 16082 3833 1 109.50000 418.400000
1897 16082 10899 1 109.50000 418.400000
3833 16082 10899 1 109.50000 418.400000
7654 16083 8739 1 109.50000 418.400000
7654 16083 10454 1 109.50000 418.400000
7654 16083 11096 1 109.50000 418.400000
8739 16083 10454 1 109.50000 418.400000
8739 16083 11096 1 109.50000 418.400000
10454 16083 11096 1 109.50000 418.400000
465 16084 8347 1 109.50000 418.400000
465 16084 10007 1 109.50000 418.400000
465 16084 10792 1 109.50000 418.400000
8347 16084 10007 1 109.50000 418.400000
8347 16084 10792 1 109.50000 418.400000
10007 16084 10792 1 109.50000 418.400000
2269 16085 2270 1 109.50000 418.400000
2269 16085 6796 1 109.50000 418.400000
2269 16085 11123 1 109.50000 418.400000
2270 16085 6796 1 109.50000 418.400000
2270 16085 11123 1 109.50000 418.400000
6796 16085 11123 1 109.50000 418.400000
2951 16086 5399 1 109.50000 418.400000
2951 16086 10106 1 109.50000 418.400000
2951 16086 10596 1 109.50000 418.400000
5399 16086 10106 1 109.50000 418.400000
5399 16086 10596 1 109.50000 418.400000
10106 16086 10596 1 109.50000 418.400000
4277 16087 8607 1 109.50000 418.400000
4277 16087 10503 1 109.50000 418.400000
4277 16087 10548 1 109.50000 418.400000
8607 16087 10503 1 109.50000 418.400000
8607 16087 10548 1 109.50000 418.400000
10503 16087 10548 1 109.50000 418.400000
6673 16088 7561 1 109.50000 418.400000
6673 16088 9850 1 109.50000 418.400000
6673 16088 11079 1 109.50000 418.400000
7561 16088 9850 1 109.50000 418.400000
7561 16088 11079 1 109.50000 418.400000
9850 16088 11079 1 109.50000 418.400000
3398 16089 8542 1 109.50000 418.400000
3398 16089 11084 1 109.50000 418.400000
3398 16089 11130 1 109.50000 418.400000
8542 16089 11084 1 109.50000 418.400000
8542 16089 11130 1 109.50000 418.400000
11084 16089 11130 1 109.50000 418.400000
2989 16090 4560 1 109.50000 418.400000
2989 16090 5262 1 109.50000 418.400000
2989 16090 5266 1 109.50000 418.400000
4560 16090 5262 1 109.50000 418.400000
4560 16090 5266 1 109.50000 418.400000
5262 16090 5266 1 109.50000 418.400000
6529 16091 10287 1 109.50000 418.400000
6529 16091 10789 1 109.50000 418.400000
6529 16091 11132 1 109.50000 418.400000
10287 16091 10789 1 109.50000 418.400000
10287 16091 11132 1 109.50000 418.400000
10789 16091 11132 1 109.50000 418.400000
2162 16092 2595 1 109.50000 418.400000
2162 16092 9456 1 109.50000 418.400000
2162 16092 11007 1 109.50000 418.400000
2595 16092 9456 1 109.50000 418.400000
2595 16092 11007 1 109.50000 418.400000
9456 16092 11007 1 109.50000 418.400000
224 16093 3114 1 109.50000 418.400000
224 16093 6829 1 109.50000 418.400000
224 16093 10455 1 109.50000 418.400000
3114 16093 6829 1 109.50000 418.400000
3114 16093 10455 1 109.50000 418.400000
6829 16093 10455 1 109.50000 418.400000
1071 16094 6221 1 109.50000 418.400000
1071 16094 9174 1 109.50000 418.400000
1071 16094 10115 1 109.50000 418.400000
6221 16094 9174 1 109.50000 418.400000
6221 16094 10115 1 109.50000 418.400000
9174 16094 10115 1 109.50000 418.400000
1262 16095 5418 1 109.50000 418.400000
1262 16095 6751 1 109.50000 418.400000
1262 16095 9880 1 109.50000 418.400000
5418 16095 6751 1 109.50000 418.400000
5418 16095 9880 1 109.50000 418.400000
6751 16095 9880 1 109.50000 418.400000
7988 16096 8127 1 109.50000 418.400000
7988 16096 10234 1 109.50000 418.400000
7988 16096 11129 1 109.50000 418.400000
8127 16096 10234 1 109.50000 418.400000
8127 16096 11129 1 109.50000 418.400000
10234 16096 11129 1 109.50000 418.400000
2999 16097 3997 1 109.50000 418.400000
2999 16097 8855 1 109.50000 418.400000
2999 16097 10245 1 109.50000 418.400000
3997 16097 8855 1 109.50000 418.400000
3997 16097 10245 1 109.50000 418.400000
8855 16097 10245 1 109.50000 418.400000
8210 16098 9001 1 109.50000 418.400000
8210 16098 10356 1 109.50000 418.400000
8210 16098 11190 1 109.50000 418.400000
9001 16098 10356 1 109.50000 418.400000
9001 16098 11190 1 109.50000 418.400000
10356 16098 11190 1 109.50000 418.400000
3748 16099 4413 1 109.50000 418.400000
3748 16099 10093 1 109.50000 418.400000
3748 16099 11126 1 109.50000 418.400000
4413 16099 10093 1 109.50000 418.400000
4413 16099 11126 1 109.50000 418.400000
10093 16099 11126 1 109.50000 418.400000
213 16100 2717 1 109.50000 418.400000
213 16100 5168 1 109.50000 418.400000
213 16100 7175 1 109.50000 418.400000
2717 16100 5168 1 109.50000 418.400000
2717 16100 7175 1 109.50000 418.400000
5168 16100 7175 1 109.50000 418.400000
2657 16101 6688 1 109.50000 418.400000
2657 16101 10353 1 109.50000 418.400000
2657 16101 11122 1 109.50000 418.400000
6688 16101 10353 1 109.50000 418.400000
6688 16101 11122 1 109.50000 418.400000
10353 16101 11122 1 109.50000 418.400000
4977 16102 8238 1 109.50000 418.400000
4977 16102 10024 1 109.50000 418.400000
4977 16102 10272 1 109.50000 418.400000
8238 16102 10024 1 109.50000 418.400000
8238 16102 10272 1 109.50000 418.400000
10024 16102 10272 1 109.50000 418.400000
2826 16103 8949 1 109.50000 418.400000
2826 16103 10011 1 109.50000 418.400000
2826 16103 10993 1 109.50000 418.400000
8949 16103 10011 1 109.50000 418.400000
8949 16103 10993 1 109.50000 418.400000
10011 16103 10993 1 109.50000 418.400000
7258 16104 7940 1 109.50000 418.400000
7258 16104 9297 1 109.50000 418.400000
7258 16104 9696 1 109.50000 418.400000
7940 16104 9297 1 109.50000 418.400000
7940 16104 9696 1 109.50000 418.400000
9297 16104 9696 1 109.50000 418.400000
2598 16105 7439 1 109.50000 418.400000
2598 16105 10101 1 109.50000 418.400000
2598 16105 11120 1 109.50000 418.400000
7439 16105 10101 1 109.50000 418.400000
7439 16105 11120 1 109.50000 418.400000
10101 16105 11120 1 109.50000 418.400000
3282 16106 4561 1 109.50000 418.400000
3282 16106 9683 1 109.50000 418.400000
3282 16106 11085 1 109.50000 418.400000
4561 16106 9683 1 109.50000 418.400000
4561 16106 11085 1 109.50000 418.400000
9683 16106 11085 1 109.50000 418.400000
1587 16107 1588 1 109.50000 418.400000
1587 16107 9166 1 109.50000 418.400000
1587 16107 11089 1 109.50000 418.400000
1588 16107 9166 1 109.50000 418.400000
1588 16107 11089 1 109.50000 418.400000
9166 16107 11089 1 109.50000 418.400000
5649 16108 7718 1 109.50000 418.400000
5649 16108 8206 1 109.50000 418.400000
5649 16108 9620 1 109.50000 418.400000
7718 16108 8206 1 109.50000 418.400000
7718 16108 9620 1 109.50000 418.400000
8206 16108 9620 1 109.50000 418.400000
3129 16109 7347 1 109.50000 418.400000
3129 16109 10931 1 109.50000 418.400000
3129 16109 10985 1 109.50000 418.400000
7347 16109 10931 1 109.50000 418.400000
7347 16109 10985 1 109.50000 418.400000
10931 16109 10985 1 109.50000 418.400000
9319 16110 9776 1 109.50000 418.400000
9319 16110 10375 1 109.50000 418.400000
9319 16110 11133 1 109.50000 418.400000
9776 16110 10375 1 109.50000 418.400000
9776 16110 11133 1 109.50000 418.400000
10375 16110 11133 1 109.50000 418.400000
7757 16111 10606 1 109.50000 418.400000
7757 16111 10742 1 109.50000 418.400000
7757 16111 11125 1 109.50000 418.400000
10606 16111 10742 1 109.50000 418.400000
10606 16111 11125 1 109.50000 418.400000
10742 16111 11125 1 109.50000 418.400000
3735 16112 9853 1 109.50000 418.400000
3735 16112 10593 1 109.50000 418.400000
3735 16112 10991 1 109.50000 418.400000
9853 16112 10593 1 109.50000 418.400000
9853 16112 10991 1 109.50000 418.400000
10593 16112 10991 1 109.50000 418.400000
2078 16113 3750 1 109.50000 418.400000
2078 16113 10368 1 109.50000 418.400000
2078 16113 10703 1 109.50000 418.400000
3750 16113 10368 1 109.50000 418.400000
3750 16113 10703 1 109.50000 418.400000
10368 16113 10703 1 109.50000 418.400000
210 16114 6704 1 109.50000 418.400000
210 16114 9070 1 109.50000 418.400000
210 16114 9127 1 109.50000 418.400000
6704 16114 9070 1 109.50000 418.400000
6704 16114 9127 1 109.50000 418.400000
9070 16114 9127 1 109.50000 418.400000
562 16115 7447 1 109.50000 418.400000
562 16115 8946 1 109.50000 418.400000
562 16115 9577 1 109.50000 418.400000
7447 16115 8946 1 109.50000 418.400000
7447 16115 9577 1 109.50000 418.400000
8946 16115 9577 1 109.50000 418.400000
2125 16116 4502 1 109.50000 418.400000
2125 16116 6562 1 109.50000 418.400000
2125 16116 6867 1 109.50000 418.400000
4502 16116 6562 1 109.50000 418.400000
4502 16116 6867 1 109.50000 418.400000
6562 16116 6867 1 109.50000 418.400000
3047 16117 6001 1 109.50000 418.400000
3047 16117 8554 1 109.50000 418.400000
3047 16117 10888 1 109.50000 418.400000
6001 16117 8554 1 109.50000 418.400000
6001 16117 10888 1 109.50000 418.400000
8554 16117 10888 1 109.50000 418.400000
1153 16118 6016 1 109.50000 418.400000
1153 16118 11101 1 109.50000 418.400000
1153 16118 11124 1 109.50000 418.400000
6016 16118 11101 1 109.50000 418.400000
6016 16118 11124 1 109.50000 418.400000
11101 16118 11124 1 109.50000 418.400000
5358 16119 9748 1 109.50000 418.400000
5358 16119 10497 1 109.50000 418.400000
5358 16119 11091 1 109.50000 418.400000
9748 16119 10497 1 109.50000 418.400000
9748 16119 11091 1 109.50000 418.400000
10497 16119 11091 1 109.50000 418.400000
4667 16120 6066 1 109.50000 418.400000
4667 16120 8216 1 109.50000 418.400000
4667 16120 8925 1 109.50000 418.400000
6066 16120 8216 1 109.50000 418.400000
6066 16120 8925 1 109.50000 418.400000
8216 16120 8925 1 109.50000 418.400000
9812 16121 10052 1 109.50000 418.400000
9812 16121 11064 1 109.50000 418.400000
9812 16121 11134 1 109.50000 418.400000
10052 16121 11064 1 109.50000 418.400000
10052 16121 11134 1 109.50000 418.400000
11064 16121 11134 1 109.50000 418.400000
662 16122 663 1 109.50000 418.400000
662 16122 6282 1 109.50000 418.400000
662 16122 7349 1 109.50000 418.400000
663 16122 6282 1 109.50000 418.400000
663 16122 7349 1 109.50000 418.400000
6282 16122 7349 1 109.50000 418.400000
313 16123 3016 1 109.50000 418.400000
313 16123 6103 1 109.50000 418.400000
313 16123 11135 1 109.50000 418.400000
3016 16123 6103 1 109.50000 418.400000
3016 16123 11135 1 109.50000 418.400000
6103 16123 11135 1 109.50000 418.400000
2556 16124 6329 1 109.50000 418.400000
2556 16124 10602 1 109.50000 418.400000
2556 16124 10953 1 109.50000 418.400000
6329 16124 10602 1 109.50000 418.400000
6329 16124 10953 1 109.50000 418.400000
10602 16124 10953 1 109.50000 418.400000
6050 16125 8783 1 109.50000 418.400000
6050 16125 8965 1 109.50000 418.400000
6050 16125 9693 1 109.50000 418.400000
8783 16125 8965 1 109.50000 418.400000
8783 16125 9693 1 109.50000 418.400000
8965 16125 9693 1 109.50000 418.400000
4489 16126 6242 1 109.50000 418.400000
4489 16126 6880 1 109.50000 418.400000
4489 16126 9749 1 109.50000 418.400000
6242 16126 6880 1 109.50000 418.400000
6242 16126 9749 1 109.50000 418.400000
6880 16126 9749 1 109.50000 418.400000
7535 16127 8020 1 109.50000 418.400000
7535 16127 10781 1 109.50000 418.400000
7535 16127 11056 1 109.50000 418.400000
8020 16127 10781 1 109.50000 418.400000
8020 16127 11056 1 109.50000 418.400000
10781 16127 11056 1 109.50000 418.400000
8 16128 2247 1 109.50000 418.400000
8 16128 5024 1 109.50000 418.400000
8 16128 9052 1 109.50000 418.400000
2247 16128 5024 1 109.50000 418.400000
2247 16128 9052 1 109.50000 418.400000
5024 16128 9052 1 109.50000 418.400000
3921 16129 4342 1 109.50000 418.400000
3921 16129 10695 1 109.50000 418.400000
3921 16129 10849 1 109.50000 418.400000
4342 16129 10695 1 109.50000 418.400000
4342 16129 10849 1 109.50000 418.400000
10695 16129 10849 1 109.50000 418.400000
3538 16130 6348 1 109.50000 418.400000
3538 16130 7868 1 109.50000 418.400000
3538 16130 11121 1 109.50000 418.400000
6348 16130 7868 1 109.50000 418.400000
6348 16130 11121 1 109.50000 418.400000
7868 16130 11121 1 109.50000 418.400000
3562 16131 5652 1 109.50000 418.400000
3562 16131 7962 1 109.50000 418.400000
3562 16131 11094 1 109.50000 418.400000
5652 16131 7962 1 109.50000 418.400000
5652 16131 11094 1 109.50000 418.400000
7962 16131 11094 1 109.50000 418.400000
526 16132 8467 1 109.50000 418.400000
526 16132 9195 1 109.50000 418.400000
526 16132 10056 1 109.50000 418.400000
8467 16132 9195 1 109.50000 418.400000
8467 16132 10056 1 109.50000 418.400000
9195 16132 10056 1 109.50000 418.400000
1083 16133 4636 1 109.50000 418.400000
1083 16133 5142 1 109.50000 418.400000
1083 16133 11224 1 109.50000 418.400000
4636 16133 5142 1 109.50000 418.400000
4636 16133 11224 1 109.50000 418.400000
5142 16133 11224 1 109.50000 418.400000
2725 16134 3394 1 109.50000 418.400000
2725 16134 8850 1 109.50000 418.400000
2725 16134 10805 1 109.50000 418.400000
3394 16134 8850 1 109.50000 418.400000
3394 16134 10805 1 109.50000 418.400000
8850 16134 10805 1 109.50000 418.400000
330 16135 996 1 109.50000 418.400000
330 16135 10347 1 109.50000 418.400000
330 16135 10959 1 109.50000 418.400000
996 16135 10347 1 109.50000 418.400000
996 16135 10959 1 109.50000 418.400000
10347 16135 10959 1 109.50000 418.400000
106 16136 7827 1 109.50000 418.400000
106 16136 10374 1 109.50000 418.400000
106 16136 10880 1 109.50000 418.400000
7827 16136 10374 1 109.50000 418.400000
7827 16136 10880 1 109.50000 418.400000
10374 16136 10880 1 109.50000 418.400000
2413 16137 7984 1 109.50000 418.400000
2413 16137 10614 1 109.50000 418.400000
2413 16137 11058 1 109.50000 418.400000
7984 16137 10614 1 109.50000 418.400000
7984 16137 11058 1 109.50000 418.400000
10614 16137 11058 1 109.50000 418.400000
9293 16138 9484 1 109.50000 418.400000
9293 16138 9516 1 109.50000 418.400000
9293 16138 10894 1 109.50000 418.400000
9484 16138 9516 1 109.50000 418.400000
9484 16138 10894 1 109.50000 418.400000
9516 16138 10894 1 109.50000 418.400000
403 16139 9687 1 109.50000 418.400000
403 16139 9688 1 109.50000 418.400000
403 16139 10600 1 109.50000 418.400000
9687 16139 9688 1 109.50000 418.400000
9687 16139 10600 1 109.50000 418.400000
9688 16139 10600 1 109.50000 418.400000
8930 16140 9281 1 109.50000 418.400000
8930 16140 9385 1 109.50000 418.400000
8930 16140 10817 1 109.50000 418.400000
9281 16140 9385 1 109.50000 418.400000
9281 16140 10817 1 109.50000 418.400000
9385 16140 10817 1 109.50000 418.400000
2215 16141 7755 1 109.50000 418.400000
2215 16141 9211 1 109.50000 418.400000
2215 16141 10590 1 109.50000 418.400000
7755 16141 9211 1 109.50000 418.400000
7755 16141 10590 1 109.50000 418.400000
9211 16141 10590 1 109.50000 418.400000
3458 16142 10713 1 109.50000 418.400000
3458 16142 11047 1 109.50000 418.400000
3458 16142 11108 1 109.50000 418.400000
10713 16142 11047 1 109.50000 418.400000
10713 16142 11108 1 109.50000 418.400000
11047 16142 11108 1 109.50000 418.400000
1968 16143 2771 1 109.50000 418.400000
1968 16143 7055 1 109.50000 418.400000
1968 16143 9322 1 109.50000 418.400000
2771 16143 7055 1 109.50000 418.400000
2771 16143 9322 1 109.50000 418.400000
7055 16143 9322 1 109.50000 418.400000
7697 16144 7699 1 109.50000 418.400000
7697 16144 9436 1 109.50000 418.400000
7697 16144 9634 1 109.50000 418.400000
7699 16144 9436 1 109.50000 418.400000
7699 16144 9634 1 109.50000 418.400000
9436 16144 9634 1 109.50000 418.400000
3901 16145 9639 1 109.50000 418.400000
3901 16145 10757 1 109.50000 418.400000
3901 16145 11039 1 109.50000 418.400000
9639 16145 10757 1 109.50000 418.400000
9639 16145 11039 1 109.50000 418.400000
10757 16145 11039 1 109.50000 418.400000
7240 16146 7304 1 109.50000 418.400000
7240 16146 8480 1 109.50000 418.400000
7240 16146 11024 1 109.50000 418.400000
7304 16146 8480 1 109.50000 418.400000
7304 16146 11024 1 109.50000 418.400000
8480 16146 11024 1 109.50000 418.400000
4218 16147 7824 1 109.50000 418.400000
4218 16147 9986 1 109.50000 418.400000
4218 16147 10559 1 109.50000 418.400000
7824 16147 9986 1 109.50000 418.400000
7824 16147 10559 1 109.50000 418.400000
9986 16147 10559 1 109.50000 418.400000
2192 16148 2653 1 109.50000 418.400000
2192 16148 8291 1 109.50000 418.400000
2192 16148 10837 1 109.50000 418.400000
2653 16148 8291 1 109.50000 418.400000
2653 16148 10837 1 109.50000 418.400000
8291 16148 10837 1 109.50000 418.400000
1263 16149 7341 1 109.50000 418.400000
1263 16149 8672 1 109.50000 418.400000
1263 16149 10554 1 109.50000 418.400000
7341 16149 8672 1 109.50000 418.400000
7341 16149 10554 1 109.50000 418.400000
8672 16149 10554 1 109.50000 418.400000
1869 16150 8017 1 109.50000 418.400000
1869 16150 8627 1 109.50000 418.400000
1869 16150 11111 1 109.50000 418.400000
8017 16150 8627 1 109.50000 418.400000
8017 16150 11111 1 109.50000 418.400000
8627 16150 11111 1 109.50000 418.400000
2748 16151 10317 1 109.50000 418.400000
2748 16151 11043 1 109.50000 418.400000
2748 16151 11172 1 109.50000 418.400000
10317 16151 11043 1 109.50000 418.400000
10317 16151 11172 1 109.50000 418.400000
11043 16151 11172 1 109.50000 418.400000
7353 16152 8230 1 109.50000 418.400000
7353 16152 10465 1 109.50000 418.400000
7353 16152 11136 1 109.50000 418.400000
8230 16152 10465 1 109.50000 418.400000
8230 16152 11136 1 109.50000 418.400000
10465 16152 11136 1 109.50000 418.400000
3710 16153 10743 1 109.50000 418.400000
3710 16153 10873 1 109.50000 418.400000
3710 16153 10988 1 109.50000 418.400000
10743 16153 10873 1 109.50000 418.400000
10743 16153 10988 1 109.50000 418.400000
10873 16153 10988 1 109.50000 418.400000
1866 16154 2606 1 109.50000 418.400000
1866 16154 2607 1 109.50000 418.400000
1866 16154 11128 1 109.50000 418.400000
2606 16154 2607 1 109.50000 418.400000
2606 16154 11128 1 109.50000 418.400000
2607 16154 11128 1 109.50000 418.400000
3048 16155 8030 1 109.50000 418.400000
3048 16155 8715 1 109.50000 418.400000
3048 16155 11116 1 109.50000 418.400000
8030 16155 8715 1 109.50000 418.400000
8030 16155 11116 1 109.50000 418.400000
8715 16155 11116 1 109.50000 418.400000
2186 16156 10689 1 109.50000 418.400000
2186 16156 10853 1 109.50000 418.400000
2186 16156 11016 1 109.50000 418.400000
10689 16156 10853 1 109.50000 418.400000
10689 16156 11016 1 109.50000 418.400000
10853 16156 11016 1 109.50000 418.400000
68 16157 121 1 109.50000 418.400000
68 16157 9771 1 109.50000 418.400000
68 16157 11137 1 109.50000 418.400000
121 16157 9771 1 109.50000 418.400000
121 16157 11137 1 109.50000 418.400000
9771 16157 11137 1 109.50000 418.400000
414 16158 493 1 109.50000 418.400000
414 16158 3746 1 109.50000 418.400000
414 16158 4109 1 109.50000 418.400000
493 16158 3746 1 109.50000 418.400000
493 16158 4109 1 109.50000 418.400000
3746 16158 4109 1 109.50000 418.400000
266 16159 8394 1 109.50000 418.400000
266 16159 8905 1 109.50000 418.400000
266 16159 10830 1 109.50000 418.400000
8394 16159 8905 1 109.50000 418.400000
8394 16159 10830 1 109.50000 418.400000
8905 16159 10830 1 109.50000 418.400000
4570 16160 9007 1 109.50000 418.400000
4570 16160 9580 1 109.50000 418.400000
4570 16160 11117 1 109.50000 418.400000
9007 16160 9580 1 109.50000 418.400000
9007 16160 11117 1 109.50000 418.400000
9580 16160 11117 1 109.50000 418.400000
4660 16161 5456 1 109.50000 418.400000
4660 16161 5517 1 109.50000 418.400000
4660 16161 8952 1 109.50000 418.400000
5456 16161 5517 1 109.50000 418.400000
5456 16161 8952 1 109.50000 418.400000
5517 16161 8952 1 109.50000 418.400000
4037 16162 5590 1 109.50000 418.400000
4037 16162 9133 1 109.50000 418.400000
4037 16162 9534 1 109.50000 418.400000
5590 16162 9133 1 109.50000 418.400000
5590 16162 9534 1 109.50000 418.400000
9133 16162 9534 1 109.50000 418.400000
5049 16163 5050 1 109.50000 418.400000
5049 16163 6764 1 109.50000 418.400000
5049 16163 7554 1 109.50000 418.400000
5050 16163 6764 1 109.50000 418.400000
5050 16163 7554 1 109.50000 418.400000
6764 16163 7554 1 109.50000 418.400000
6809 16164 7056 1 109.50000 418.400000
6809 16164 7794 1 109.50000 418.400000
6809 16164 10152 1 109.50000 418.400000
7056 16164 7794 1 109.50000 418.400000
7056 16164 10152 1 109.50000 418.400000
7794 16164 10152 1 109.50000 418.400000
2743 16165 3812 1 109.50000 418.400000
2743 16165 8479 1 109.50000 418.400000
2743 16165 10255 1 109.50000 418.400000
3812 16165 8479 1 109.50000 418.400000
3812 16165 10255 1 109.50000 418.400000
8479 16165 10255 1 109.50000 418.400000
6838 16166 7425 1 109.50000 418.400000
6838 16166 10449 1 109.50000 418.400000
6838 16166 10912 1 109.50000 418.400000
7425 16166 10449 1 109.50000 418.400000
7425 16166 10912 1 109.50000 418.400000
10449 16166 10912 1 109.50000 418.400000
1106 16167 5200 1 109.50000 418.400000
1106 16167 9078 1 109.50000 418.400000
1106 16167 11133 1 109.50000 418.400000
5200 16167 9078 1 109.50000 418.400000
5200 16167 11133 1 109.50000 418.400000
9078 16167 11133 1 109.50000 418.400000
3161 16168 5611 1 109.50000 418.400000
3161 16168 8406 1 109.50000 418.400000
3161 16168 10688 1 109.50000 418.400000
5611 16168 8406 1 109.50000 418.400000
5611 16168 10688 1 109.50000 418.400000
8406 16168 10688 1 109.50000 418.400000
2887 16169 8382 1 109.50000 418.400000
2887 16169 9886 1 109.50000 418.400000
2887 16169 11068 1 109.50000 418.400000
8382 16169 9886 1 109.50000 418.400000
8382 16169 11068 1 109.50000 418.400000
9886 16169 11068 1 109.50000 418.400000
1428 16170 2920 1 109.50000 418.400000
1428 16170 3069 1 109.50000 418.400000
1428 16170 9897 1 109.50000 418.400000
2920 16170 3069 1 109.50000 418.400000
2920 16170 9897 1 109.50000 418.400000
3069 16170 9897 1 109.50000 418.400000
4264 16171 9434 1 109.50000 418.400000
4264 16171 9854 1 109.50000 418.400000
4264 16171 11112 1 109.50000 418.400000
9434 16171 9854 1 109.50000 418.400000
9434 16171 11112 1 109.50000 418.400000
9854 16171 11112 1 109.50000 418.400000
7348 16172 7864 1 109.50000 418.400000
7348 16172 9885 1 109.50000 418.400000
7348 16172 10804 1 109.50000 418.400000
7864 16172 9885 1 109.50000 418.400000
7864 16172 10804 1 109.50000 418.400000
9885 16172 10804 1 109.50000 418.400000
4836 16173 8688 1 109.50000 418.400000
4836 16173 9253 1 109.50000 418.400000
4836 16173 9923 1 109.50000 418.400000
8688 16173 9253 1 109.50000 418.400000
8688 16173 9923 1 109.50000 418.400000
9253 16173 9923 1 109.50000 418.400000
4477 16174 6230 1 109.50000 418.400000
4477 16174 10274 1 109.50000 418.400000
4477 16174 11059 1 109.50000 418.400000
6230 16174 10274 1 109.50000 418.400000
6230 16174 11059 1 109.50000 418.400000
10274 16174 11059 1 109.50000 418.400000
7400 16175 7765 1 109.50000 418.400000
7400 16175 7790 1 109.50000 418.400000
7400 16175 10258 1 109.50000 418.400000
7765 16175 7790 1 109.50000 418.400000
7765 16175 10258 1 109.50000 418.400000
7790 16175 10258 1 109.50000 418.400000
7242 16176 10168 1 109.50000 418.400000
7242 16176 10183 1 109.50000 418.400000
7242 16176 11118 1 109.50000 418.400000
10168 16176 10183 1 109.50000 418.400000
10168 16176 11118 1 109.50000 418.400000
10183 16176 11118 1 109.50000 418.400000
1670 16177 5285 1 109.50000 418.400000
1670 16177 10180 1 109.50000 418.400000
1670 16177 10391 1 109.50000 418.400000
5285 16177 10180 1 109.50000 418.400000
5285 16177 10391 1 109.50000 418.400000
10180 16177 10391 1 109.50000 418.400000
1878 16178 4887 1 109.50000 418.400000
1878 16178 7927 1 109.50000 418.400000
1878 16178 8571 1 109.50000 418.400000
4887 16178 7927 1 109.50000 418.400000
4887 16178 8571 1 109.50000 418.400000
7927 16178 8571 1 109.50000 418.400000
1739 16179 1741 1 109.50000 418.400000
1739 16179 6036 1 109.50000 418.400000
1739 16179 11088 1 109.50000 418.400000
1741 16179 6036 1 109.50000 418.400000
1741 16179 11088 1 109.50000 418.400000
6036 16179 11088 1 109.50000 418.400000
9278 16180 10174 1 109.50000 418.400000
9278 16180 11019 1 109.50000 418.400000
9278 16180 11135 1 109.50000 418.400000
10174 16180 11019 1 109.50000 418.400000
10174 16180 11135 1 109.50000 418.400000
11019 16180 11135 1 109.50000 418.400000
77 16181 6088 1 109.50000 418.400000
77 16181 10869 1 109.50000 418.400000
77 16181 11105 1 109.50000 418.400000
6088 16181 10869 1 109.50000 418.400000
6088 16181 11105 1 109.50000 418.400000
10869 16181 11105 1 109.50000 418.400000
3275 16182 4647 1 109.50000 418.400000
3275 16182 9806 1 109.50000 418.400000
3275 16182 10886 1 109.50000 418.400000
4647 16182 9806 1 109.50000 418.400000
4647 16182 10886 1 109.50000 418.400000
9806 16182 10886 1 109.50000 418.400000
712 16183 8255 1 109.50000 418.400000
712 16183 8336 1 109.50000 418.400000
712 16183 10881 1 109.50000 418.400000
8255 16183 8336 1 109.50000 418.400000
8255 16183 10881 1 109.50000 418.400000
8336 16183 10881 1 109.50000 418.400000
83 16184 9429 1 109.50000 418.400000
83 16184 9716 1 109.50000 418.400000
83 16184 10157 1 109.50000 418.400000
9429 16184 9716 1 109.50000 418.400000
9429 16184 10157 1 109.50000 418.400000
9716 16184 10157 1 109.50000 418.400000
10280 16185 10298 1 109.50000 418.400000
10280 16185 10309 1 109.50000 418.400000
10280 16185 10748 1 109.50000 418.400000
10298 16185 10309 1 109.50000 418.400000
10298 16185 10748 1 109.50000 418.400000
10309 16185 10748 1 109.50000 418.400000
6076 16186 7112 1 109.50000 418.400000
6076 16186 8312 1 109.50000 418.400000
6076 16186 10939 1 109.50000 418.400000
7112 16186 8312 1 109.50000 418.400000
7112 16186 10939 1 109.50000 418.400000
8312 16186 10939 1 109.50000 418.400000
7616 16187 10226 1 109.50000 418.400000
7616 16187 10896 1 109.50000 418.400000
7616 16187 10961 1 109.50000 418.400000
10226 16187 10896 1 109.50000 418.400000
10226 16187 10961 1 109.50000 418.400000
10896 16187 10961 1 109.50000 418.400000
2389 16188 10037 1 109.50000 418.400000
2389 16188 11131 1 109.50000 418.400000
2389 16188 11132 1 109.50000 418.400000
10037 16188 11131 1 109.50000 418.400000
10037 16188 11132 1 109.50000 418.400000
11131 16188 11132 1 109.50000 418.400000
614 16189 7832 1 109.50000 418.400000
614 16189 7833 1 109.50000 418.400000
614 16189 10256 1 109.50000 418.400000
7832 16189 7833 1 109.50000 418.400000
7832 16189 10256 1 109.50000 418.400000
7833 16189 10256 1 109.50000 418.400000
5117 16190 5513 1 109.50000 418.400000
5117 16190 8971 1 109.50000 418.400000
5117 16190 10350 1 109.50000 418.400000
5513 16190 8971 1 109.50000 418.400000
5513 16190 10350 1 109.50000 418.400000
8971 16190 10350 1 109.50000 418.400000
8225 16191 10196 1 109.50000 418.400000
8225 16191 10573 1 109.50000 418.400000
8225 16191 11015 1 109.50000 418.400000
10196 16191 10573 1 109.50000 418.400000
10196 16191 11015 1 109.50000 418.400000
10573 16191 11015 1 109.50000 418.400000
990 16192 3918 1 109.50000 418.400000
990 16192 5487 1 109.50000 418.400000
990 16192 7552 1 109.50000 418.400000
3918 16192 5487 1 109.50000 418.400000
3918 16192 7552 1 109.50000 418.400000
5487 16192 7552 1 109.50000 418.400000
2823 16193 3283 1 109.50000 418.400000
2823 16193 8524 1 109.50000 418.400000
2823 16193 8987 1 109.50000 418.400000
3283 16193 8524 1 109.50000 418.400000
3283 16193 8987 1 109.50000 418.400000
8524 16193 8987 1 109.50000 418.400000
6677 16194 10059 1 109.50000 418.400000
6677 16194 11033 1 109.50000 418.400000
6677 16194 11099 1 109.50000 418.400000
10059 16194 11033 1 109.50000 418.400000
10059 16194 11099 1 109.50000 418.400000
11033 16194 11099 1 109.50000 418.400000
2663 16195 6355 1 109.50000 418.400000
2663 16195 6959 1 109.50000 418.400000
2663 16195 8963 1 109.50000 418.400000
6355 16195 6959 1 109.50000 418.400000
6355 16195 8963 1 109.50000 418.400000
6959 16195 8963 1 109.50000 418.400000
660 16196 1902 1 109.50000 418.400000
660 16196 10934 1 109.50000 418.400000
660 16196 11134 1 109.50000 418.400000
1902 16196 10934 1 109.50000 418.400000
1902 16196 11134 1 109.50000 418.400000
10934 16196 11134 1 109.50000 418.400000
2923 16197 5081 1 109.50000 418.400000
2923 16197 5436 1 109.50000 418.400000
2923 16197 9475 1 109.50000 418.400000
5081 16197 5436 1 109.50000 418.400000
5081 16197 9475 1 109.50000 418.400000
5436 16197 9475 1 109.50000 418.400000
1776 16198 3011 1 109.50000 418.400000
1776 16198 8518 1 109.50000 418.400000
1776 16198 10947 1 109.50000 418.400000
3011 16198 8518 1 109.50000 418.400000
3011 16198 10947 1 109.50000 418.400000
8518 16198 10947 1 109.50000 418.400000
2644 16199 3986 1 109.50000 418.400000
2644 16199 6752 1 109.50000 418.400000
2644 16199 9439 1 109.50000 418.400000
3986 16199 6752 1 109.50000 418.400000
3986 16199 9439 1 109.50000 418.400000
6752 16199 9439 1 109.50000 418.400000
1074 16200 1661 1 109.50000 418.400000
1074 16200 4448 1 109.50000 418.400000
1074 16200 11036 1 109.50000 418.400000
1661 16200 4448 1 109.50000 418.400000
1661 16200 11036 1 109.50000 418.400000
4448 16200 11036 1 109.50000 418.400000
4661 16201 5106 1 109.50000 418.400000
4661 16201 7454 1 109.50000 418.400000
4661 16201 8268 1 109.50000 418.400000
5106 16201 7454 1 109.50000 418.400000
5106 16201 8268 1 109.50000 418.400000
7454 16201 8268 1 109.50000 418.400000
3485 16202 3536 1 109.50000 418.400000
3485 16202 4290 1 109.50000 418.400000
3485 16202 10360 1 109.50000 418.400000
3536 16202 4290 1 109.50000 418.400000
3536 16202 10360 1 109.50000 418.400000
4290 16202 10360 1 109.50000 418.400000
177 16203 1271 1 109.50000 418.400000
177 16203 1805 1 109.50000 418.400000
177 16203 3357 1 109.50000 418.400000
1271 16203 1805 1 109.50000 418.400000
1271 16203 3357 1 109.50000 418.400000
1805 16203 3357 1 109.50000 418.400000
948 16204 6340 1 109.50000 418.400000
948 16204 8958 1 109.50000 418.400000
948 16204 10292 1 109.50000 418.400000
6340 16204 8958 1 109.50000 418.400000
6340 16204 10292 1 109.50000 418.400000
8958 16204 10292 1 109.50000 418.400000
645 16205 2721 1 109.50000 418.400000
645 16205 6714 1 109.50000 418.400000
645 16205 9793 1 109.50000 418.400000
2721 16205 6714 1 109.50000 418.400000
2721 16205 9793 1 109.50000 418.400000
6714 16205 9793 1 109.50000 418.400000
5591 16206 7331 1 109.50000 418.400000
5591 16206 10202 1 109.50000 418.400000
5591 16206 11136 1 109.50000 418.400000
7331 16206 10202 1 109.50000 418.400000
7331 16206 11136 1 109.50000 418.400000
10202 16206 11136 1 109.50000 418.400000
1447 16207 1824 1 109.50000 418.400000
1447 16207 2794 1 109.50000 418.400000
1447 16207 3201 1 109.50000 418.400000
1824 16207 2794 1 109.50000 418.400000
1824 16207 3201 1 109.50000 418.400000
2794 16207 3201 1 109.50000 418.400000
9165 16208 10229 1 109.50000 418.400000
9165 16208 10402 1 109.50000 418.400000
9165 16208 10800 1 109.50000 418.400000
10229 16208 10402 1 109.50000 418.400000
10229 16208 10800 1 109.50000 418.400000
10402 16208 10800 1 109.50000 418.400000
8160 16209 9522 1 109.50000 418.400000
8160 16209 10244 1 109.50000 418.400000
8160 16209 11119 1 109.50000 418.400000
9522 16209 10244 1 109.50000 418.400000
9522 16209 11119 1 109.50000 418.400000
10244 16209 11119 1 109.50000 418.400000
4866 16210 5887 1 109.50000 418.400000
4866 16210 7830 1 109.50000 418.400000
4866 16210 10996 1 109.50000 418.400000
5887 16210 7830 1 109.50000 418.400000
5887 16210 10996 1 109.50000 418.400000
7830 16210 10996 1 109.50000 418.400000
3238 16211 4431 1 109.50000 418.400000
3238 16211 9080 1 109.50000 418.400000
3238 16211 10297 1 109.50000 418.400000
4431 16211 9080 1 109.50000 418.400000
4431 16211 10297 1 109.50000 418.400000
9080 16211 10297 1 109.50000 418.400000
8273 16212 9095 1 109.50000 418.400000
8273 16212 9418 1 109.50000 418.400000
8273 16212 10344 1 109.50000 418.400000
9095 16212 9418 1 109.50000 418.400000
9095 16212 10344 1 109.50000 418.400000
9418 16212 10344 1 109.50000 418.400000
5071 16213 6175 1 109.50000 418.400000
5071 16213 6178 1 109.50000 418.400000
5071 16213 6787 1 109.50000 418.400000
6175 16213 6178 1 109.50000 418.400000
6175 16213 6787 1 109.50000 418.400000
6178 16213 6787 1 109.50000 418.400000
16214 16215 16216 1 119.8800511 375.723200
16214 16215 16224 1 119.8800511 375.723200
16216 16215 16224 1 120.0200517 532.790560
16215 16216 16217 1 121.3800518 83.010560
16215 16216 16218 1 120.0200517 532.790560
16217 16216 16218 1 121.3800518 83.010560
3569 16217 3570 1 109.50000 418.400000
3569 16217 16216 1 103.70004 836.800000
3569 16217 16226 1 109.50000 418.400000
3570 16217 16216 1 103.70004 836.800000
3570 16217 16226 1 109.50000 418.400000
16216 16217 16226 1 103.70004 1034.033760
16216 16218 16219 1 119.8800511 375.723200
16216 16218 16220 1 120.0200517 532.790560
16219 16218 16220 1 119.8800511 375.723200
16218 16220 16221 1 119.8800511 375.723200
16218 16220 16222 1 120.0200517 532.790560
16221 16220 16222 1 119.8800511 375.723200
16220 16222 16223 1 119.8800511 375.723200
16220 16222 16224 1 120.0200517 532.790560
16223 16222 16224 1 119.8800511 375.723200
16215 16224 16222 1 120.0200517 532.790560
16215 16224 16225 1 119.8800511 375.723200
16222 16224 16225 1 119.8800511 375.723200
16217 16226 16227 1 115.00000 209.200000
16228 16229 16230 1 119.8800511 375.723200
16228 16229 16238 1 119.8800511 375.723200
16230 16229 16238 1 120.0200517 532.790560
16229 16230 16231 1 121.3800518 83.010560
16229 16230 16232 1 120.0200517 532.790560
16231 16230 16232 1 121.3800518 83.010560
348 16231 5444 1 109.50000 418.400000
348 16231 16230 1 103.70004 836.800000
348 16231 16240 1 109.50000 418.400000
5444 16231 16230 1 103.70004 836.800000
5444 16231 16240 1 109.50000 418.400000
16230 16231 16240 1 103.70004 1034.033760
16230 16232 16233 1 119.8800511 375.723200
16230 16232 16234 1 120.0200517 532.790560
16233 16232 16234 1 119.8800511 375.723200
16232 16234 16235 1 119.8800511 375.723200
16232 16234 16236 1 120.0200517 532.790560
16235 16234 16236 1 119.8800511 375.723200
16234 16236 16237 1 119.8800511 375.723200
16234 16236 16238 1 120.0200517 532.790560
16237 16236 16238 1 119.8800511 375.723200
16229 16238 16236 1 120.0200517 532.790560
16229 16238 16239 1 119.8800511 375.723200
16236 16238 16239 1 119.8800511 375.723200
16231 16240 16241 1 115.00000 209.200000
16242 16243 16244 1 119.8800511 375.723200
16242 16243 16252 1 119.8800511 375.723200
16244 16243 16252 1 120.0200517 532.790560
16243 16244 16245 1 121.3800518 83.010560
16243 16244 16246 1 120.0200517 532.790560
16245 16244 16246 1 121.3800518 83.010560
2431 16245 5578 1 109.50000 418.400000
2431 16245 16244 1 103.70004 836.800000
2431 16245 16254 1 109.50000 418.400000
5578 16245 16244 1 103.70004 836.800000
5578 16245 16254 1 109.50000 418.400000
16244 16245 16254 1 103.70004 1034.033760
16244 16246 16247 1 119.8800511 375.723200
16244 16246 16248 1 120.0200517 532.790560
16247 16246 16248 1 119.8800511 375.723200
16246 16248 16249 1 119.8800511 375.723200
16246 16248 16250 1 120.0200517 532.790560
16249 16248 16250 1 119.8800511 375.723200
16248 16250 16251 1 119.8800511 375.723200
16248 16250 16252 1 120.0200517 532.790560
16251 16250 16252 1 119.8800511 375.723200
16243 16252 16250 1 120.0200517 532.790560
16243 16252 16253 1 119.8800511 375.723200
16250 16252 16253 1 119.8800511 375.723200
16245 16254 16255 1 115.00000 209.200000
16256 16257 16258 1 119.8800511 375.723200
16256 16257 16266 1 119.8800511 375.723200
16258 16257 16266 1 120.0200517 532.790560
16257 16258 16259 1 121.3800518 83.010560
16257 16258 16260 1 120.0200517 532.790560
16259 16258 16260 1 121.3800518 83.010560
4338 16259 5737 1 109.50000 418.400000
4338 16259 16258 1 103.70004 836.800000
4338 16259 16268 1 109.50000 418.400000
5737 16259 16258 1 103.70004 836.800000
5737 16259 16268 1 109.50000 418.400000
16258 16259 16268 1 103.70004 1034.033760
16258 16260 16261 1 119.8800511 375.723200
16258 16260 16262 1 120.0200517 532.790560
16261 16260 16262 1 119.8800511 375.723200
16260 16262 16263 1 119.8800511 375.723200
16260 16262 16264 1 120.0200517 532.790560
16263 16262 16264 1 119.8800511 375.723200
16262 16264 16265 1 119.8800511 375.723200
16262 16264 16266 1 120.0200517 532.790560
16265 16264 16266 1 119.8800511 375.723200
16257 16266 16264 1 120.0200517 532.790560
16257 16266 16267 1 119.8800511 375.723200
16264 16266 16267 1 119.8800511 375.723200
16259 16268 16269 1 115.00000 209.200000
16270 16271 16272 1 119.8800511 375.723200
16270 16271 16280 1 119.8800511 375.723200
16272 16271 16280 1 120.0200517 532.790560
16271 16272 16273 1 121.3800518 83.010560
16271 16272 16274 1 120.0200517 532.790560
16273 16272 16274 1 121.3800518 83.010560
4111 16273 5830 1 109.50000 418.400000
4111 16273 16272 1 103.70004 836.800000
4111 16273 16282 1 109.50000 418.400000
5830 16273 16272 1 103.70004 836.800000
5830 16273 16282 1 109.50000 418.400000
16272 16273 16282 1 103.70004 1034.033760
16272 16274 16275 1 119.8800511 375.723200
16272 16274 16276 1 120.0200517 532.790560
16275 16274 16276 1 119.8800511 375.723200
16274 16276 16277 1 119.8800511 375.723200
16274 16276 16278 1 120.0200517 532.790560
16277 16276 16278 1 119.8800511 375.723200
16276 16278 16279 1 119.8800511 375.723200
16276 16278 16280 1 120.0200517 532.790560
16279 16278 16280 1 119.8800511 375.723200
16271 16280 16278 1 120.0200517 532.790560
16271 16280 16281 1 119.8800511 375.723200
16278 16280 16281 1 119.8800511 375.723200
16273 16282 16283 1 115.00000 209.200000
16284 16285 16286 1 119.8800511 375.723200
16284 16285 16294 1 119.8800511 375.723200
16286 16285 16294 1 120.0200517 532.790560
16285 16286 16287 1 121.3800518 83.010560
16285 16286 16288 1 120.0200517 532.790560
16287 16286 16288 1 121.3800518 83.010560
4650 16287 5919 1 109.50000 418.400000
4650 16287 16286 1 103.70004 836.800000
4650 16287 16296 1 109.50000 418.400000
5919 16287 16286 1 103.70004 836.800000
5919 16287 16296 1 109.50000 418.400000
16286 16287 16296 1 103.70004 1034.033760
16286 16288 16289 1 119.8800511 375.723200
16286 16288 16290 1 120.0200517 532.790560
16289 16288 16290 1 119.8800511 375.723200
16288 16290 16291 1 119.8800511 375.723200
16288 16290 16292 1 120.0200517 532.790560
16291 16290 16292 1 119.8800511 375.723200
16290 16292 16293 1 119.8800511 375.723200
16290 16292 16294 1 120.0200517 532.790560
16293 16292 16294 1 119.8800511 375.723200
16285 16294 16292 1 120.0200517 532.790560
16285 16294 16295 1 119.8800511 375.723200
16292 16294 16295 1 119.8800511 375.723200
16287 16296 16297 1 115.00000 209.200000
16298 16299 16300 1 119.8800511 375.723200
16298 16299 16308 1 119.8800511 375.723200
16300 16299 16308 1 120.0200517 532.790560
16299 16300 16301 1 121.3800518 83.010560
16299 16300 16302 1 120.0200517 532.790560
16301 16300 16302 1 121.3800518 83.010560
5472 16301 6051 1 109.50000 418.400000
5472 16301 16300 1 103.70004 836.800000
5472 16301 16310 1 109.50000 418.400000
6051 16301 16300 1 103.70004 836.800000
6051 16301 16310 1 109.50000 418.400000
16300 16301 16310 1 103.70004 1034.033760
16300 16302 16303 1 119.8800511 375.723200
16300 16302 16304 1 120.0200517 532.790560
16303 16302 16304 1 119.8800511 375.723200
16302 16304 16305 1 119.8800511 375.723200
16302 16304 16306 1 120.0200517 532.790560
16305 16304 16306 1 119.8800511 375.723200
16304 16306 16307 1 119.8800511 375.723200
16304 16306 16308 1 120.0200517 532.790560
16307 16306 16308 1 119.8800511 375.723200
16299 16308 16306 1 120.0200517 532.790560
16299 16308 16309 1 119.8800511 375.723200
16306 16308 16309 1 119.8800511 375.723200
16301 16310 16311 1 115.00000 209.200000
16312 16313 16314 1 119.8800511 375.723200
16312 16313 16322 1 119.8800511 375.723200
16314 16313 16322 1 120.0200517 532.790560
16313 16314 16315 1 121.3800518 83.010560
16313 16314 16316 1 120.0200517 532.790560
16315 16314 16316 1 121.3800518 83.010560
5030 16315 5268 1 109.50000 418.400000
5030 16315 16314 1 103.70004 836.800000
5030 16315 16324 1 109.50000 418.400000
5268 16315 16314 1 103.70004 836.800000
5268 16315 16324 1 109.50000 418.400000
16314 16315 16324 1 103.70004 1034.033760
16314 16316 16317 1 119.8800511 375.723200
16314 16316 16318 1 120.0200517 532.790560
16317 16316 16318 1 119.8800511 375.723200
16316 16318 16319 1 119.8800511 375.723200
16316 16318 16320 1 120.0200517 532.790560
16319 16318 16320 1 119.8800511 375.723200
16318 16320 16321 1 119.8800511 375.723200
16318 16320 16322 1 120.0200517 532.790560
16321 16320 16322 1 119.8800511 375.723200
16313 16322 16320 1 120.0200517 532.790560
16313 16322 16323 1 119.8800511 375.723200
16320 16322 16323 1 119.8800511 375.723200
16315 16324 16325 1 115.00000 209.200000
16326 16327 16328 1 119.8800511 375.723200
16326 16327 16336 1 119.8800511 375.723200
16328 16327 16336 1 120.0200517 532.790560
16327 16328 16329 1 121.3800518 83.010560
16327 16328 16330 1 120.0200517 532.790560
16329 16328 16330 1 121.3800518 83.010560
6079 16329 6080 1 109.50000 418.400000
6079 16329 16328 1 103.70004 836.800000
6079 16329 16338 1 109.50000 418.400000
6080 16329 16328 1 103.70004 836.800000
6080 16329 16338 1 109.50000 418.400000
16328 16329 16338 1 103.70004 1034.033760
16328 16330 16331 1 119.8800511 375.723200
16328 16330 16332 1 120.0200517 532.790560
16331 16330 16332 1 119.8800511 375.723200
16330 16332 16333 1 119.8800511 375.723200
16330 16332 16334 1 120.0200517 532.790560
16333 16332 16334 1 119.8800511 375.723200
16332 16334 16335 1 119.8800511 375.723200
16332 16334 16336 1 120.0200517 532.790560
16335 16334 16336 1 119.8800511 375.723200
16327 16336 16334 1 120.0200517 532.790560
16327 16336 16337 1 119.8800511 375.723200
16334 16336 16337 1 119.8800511 375.723200
16329 16338 16339 1 115.00000 209.200000
16340 16341 16342 1 119.8800511 375.723200
16340 16341 16350 1 119.8800511 375.723200
16342 16341 16350 1 120.0200517 532.790560
16341 16342 16343 1 121.3800518 83.010560
16341 16342 16344 1 120.0200517 532.790560
16343 16342 16344 1 121.3800518 83.010560
5498 16343 6229 1 109.50000 418.400000
5498 16343 16342 1 103.70004 836.800000
5498 16343 16352 1 109.50000 418.400000
6229 16343 16342 1 103.70004 836.800000
6229 16343 16352 1 109.50000 418.400000
16342 16343 16352 1 103.70004 1034.033760
16342 16344 16345 1 119.8800511 375.723200
16342 16344 16346 1 120.0200517 532.790560
16345 16344 16346 1 119.8800511 375.723200
16344 16346 16347 1 119.8800511 375.723200
16344 16346 16348 1 120.0200517 532.790560
16347 16346 16348 1 119.8800511 375.723200
16346 16348 16349 1 119.8800511 375.723200
16346 16348 16350 1 120.0200517 532.790560
16349 16348 16350 1 119.8800511 375.723200
16341 16350 16348 1 120.0200517 532.790560
16341 16350 16351 1 119.8800511 375.723200
16348 16350 16351 1 119.8800511 375.723200
16343 16352 16353 1 115.00000 209.200000
16354 16355 16356 1 119.8800511 375.723200
16354 16355 16364 1 119.8800511 375.723200
16356 16355 16364 1 120.0200517 532.790560
16355 16356 16357 1 121.3800518 83.010560
16355 16356 16358 1 120.0200517 532.790560
16357 16356 16358 1 121.3800518 83.010560
5000 16357 6267 1 109.50000 418.400000
5000 16357 16356 1 103.70004 836.800000
5000 16357 16366 1 109.50000 418.400000
6267 16357 16356 1 103.70004 836.800000
6267 16357 16366 1 109.50000 418.400000
16356 16357 16366 1 103.70004 1034.033760
16356 16358 16359 1 119.8800511 375.723200
16356 16358 16360 1 120.0200517 532.790560
16359 16358 16360 1 119.8800511 375.723200
16358 16360 16361 1 119.8800511 375.723200
16358 16360 16362 1 120.0200517 532.790560
16361 16360 16362 1 119.8800511 375.723200
16360 16362 16363 1 119.8800511 375.723200
16360 16362 16364 1 120.0200517 532.790560
16363 16362 16364 1 119.8800511 375.723200
16355 16364 16362 1 120.0200517 532.790560
16355 16364 16365 1 119.8800511 375.723200
16362 16364 16365 1 119.8800511 375.723200
16357 16366 16367 1 115.00000 209.200000
16368 16369 16370 1 119.8800511 375.723200
16368 16369 16378 1 119.8800511 375.723200
16370 16369 16378 1 120.0200517 532.790560
16369 16370 16371 1 121.3800518 83.010560
16369 16370 16372 1 120.0200517 532.790560
16371 16370 16372 1 121.3800518 83.010560
6314 16371 6315 1 109.50000 418.400000
6314 16371 16370 1 103.70004 836.800000
6314 16371 16380 1 109.50000 418.400000
6315 16371 16370 1 103.70004 836.800000
6315 16371 16380 1 109.50000 418.400000
16370 16371 16380 1 103.70004 1034.033760
16370 16372 16373 1 119.8800511 375.723200
16370 16372 16374 1 120.0200517 532.790560
16373 16372 16374 1 119.8800511 375.723200
16372 16374 16375 1 119.8800511 375.723200
16372 16374 16376 1 120.0200517 532.790560
16375 16374 16376 1 119.8800511 375.723200
16374 16376 16377 1 119.8800511 375.723200
16374 16376 16378 1 120.0200517 532.790560
16377 16376 16378 1 119.8800511 375.723200
16369 16378 16376 1 120.0200517 532.790560
16369 16378 16379 1 119.8800511 375.723200
16376 16378 16379 1 119.8800511 375.723200
16371 16380 16381 1 115.00000 209.200000
16382 16383 16384 1 119.8800511 375.723200
16382 16383 16392 1 119.8800511 375.723200
16384 16383 16392 1 120.0200517 532.790560
16383 16384 16385 1 121.3800518 83.010560
16383 16384 16386 1 120.0200517 532.790560
16385 16384 16386 1 121.3800518 83.010560
6350 16385 6351 1 109.50000 418.400000
6350 16385 16384 1 103.70004 836.800000
6350 16385 16394 1 109.50000 418.400000
6351 16385 16384 1 103.70004 836.800000
6351 16385 16394 1 109.50000 418.400000
16384 16385 16394 1 103.70004 1034.033760
16384 16386 16387 1 119.8800511 375.723200
16384 16386 16388 1 120.0200517 532.790560
16387 16386 16388 1 119.8800511 375.723200
16386 16388 16389 1 119.8800511 375.723200
16386 16388 16390 1 120.0200517 532.790560
16389 16388 16390 1 119.8800511 375.723200
16388 16390 16391 1 119.8800511 375.723200
16388 16390 16392 1 120.0200517 532.790560
16391 16390 16392 1 119.8800511 375.723200
16383 16392 16390 1 120.0200517 532.790560
16383 16392 16393 1 119.8800511 375.723200
16390 16392 16393 1 119.8800511 375.723200
16385 16394 16395 1 115.00000 209.200000
16396 16397 16398 1 119.8800511 375.723200
16396 16397 16406 1 119.8800511 375.723200
16398 16397 16406 1 120.0200517 532.790560
16397 16398 16399 1 121.3800518 83.010560
16397 16398 16400 1 120.0200517 532.790560
16399 16398 16400 1 121.3800518 83.010560
5762 16399 6382 1 109.50000 418.400000
5762 16399 16398 1 103.70004 836.800000
5762 16399 16408 1 109.50000 418.400000
6382 16399 16398 1 103.70004 836.800000
6382 16399 16408 1 109.50000 418.400000
16398 16399 16408 1 103.70004 1034.033760
16398 16400 16401 1 119.8800511 375.723200
16398 16400 16402 1 120.0200517 532.790560
16401 16400 16402 1 119.8800511 375.723200
16400 16402 16403 1 119.8800511 375.723200
16400 16402 16404 1 120.0200517 532.790560
16403 16402 16404 1 119.8800511 375.723200
16402 16404 16405 1 119.8800511 375.723200
16402 16404 16406 1 120.0200517 532.790560
16405 16404 16406 1 119.8800511 375.723200
16397 16406 16404 1 120.0200517 532.790560
16397 16406 16407 1 119.8800511 375.723200
16404 16406 16407 1 119.8800511 375.723200
16399 16408 16409 1 115.00000 209.200000
16410 16411 16412 1 119.8800511 375.723200
16410 16411 16420 1 119.8800511 375.723200
16412 16411 16420 1 120.0200517 532.790560
16411 16412 16413 1 121.3800518 83.010560
16411 16412 16414 1 120.0200517 532.790560
16413 16412 16414 1 121.3800518 83.010560
5361 16413 6026 1 109.50000 418.400000
5361 16413 16412 1 103.70004 836.800000
5361 16413 16422 1 109.50000 418.400000
6026 16413 16412 1 103.70004 836.800000
6026 16413 16422 1 109.50000 418.400000
16412 16413 16422 1 103.70004 1034.033760
16412 16414 16415 1 119.8800511 375.723200
16412 16414 16416 1 120.0200517 532.790560
16415 16414 16416 1 119.8800511 375.723200
16414 16416 16417 1 119.8800511 375.723200
16414 16416 16418 1 120.0200517 532.790560
16417 16416 16418 1 119.8800511 375.723200
16416 16418 16419 1 119.8800511 375.723200
16416 16418 16420 1 120.0200517 532.790560
16419 16418 16420 1 119.8800511 375.723200
16411 16420 16418 1 120.0200517 532.790560
16411 16420 16421 1 119.8800511 375.723200
16418 16420 16421 1 119.8800511 375.723200
16413 16422 16423 1 115.00000 209.200000
16424 16425 16426 1 119.8800511 375.723200
16424 16425 16434 1 119.8800511 375.723200
16426 16425 16434 1 120.0200517 532.790560
16425 16426 16427 1 121.3800518 83.010560
16425 16426 16428 1 120.0200517 532.790560
16427 16426 16428 1 121.3800518 83.010560
491 16427 5846 1 109.50000 418.400000
491 16427 16426 1 103.70004 836.800000
491 16427 16436 1 109.50000 418.400000
5846 16427 16426 1 103.70004 836.800000
5846 16427 16436 1 109.50000 418.400000
16426 16427 16436 1 103.70004 1034.033760
16426 16428 16429 1 119.8800511 375.723200
16426 16428 16430 1 120.0200517 532.790560
16429 16428 16430 1 119.8800511 375.723200
16428 16430 16431 1 119.8800511 375.723200
16428 16430 16432 1 120.0200517 532.790560
16431 16430 16432 1 119.8800511 375.723200
16430 16432 16433 1 119.8800511 375.723200
16430 16432 16434 1 120.0200517 532.790560
16433 16432 16434 1 119.8800511 375.723200
16425 16434 16432 1 120.0200517 532.790560
16425 16434 16435 1 119.8800511 375.723200
16432 16434 16435 1 119.8800511 375.723200
16427 16436 16437 1 115.00000 209.200000
16438 16439 16440 1 119.8800511 375.723200
16438 16439 16448 1 119.8800511 375.723200
16440 16439 16448 1 120.0200517 532.790560
16439 16440 16441 1 121.3800518 83.010560
16439 16440 16442 1 120.0200517 532.790560
16441 16440 16442 1 121.3800518 83.010560
499 16441 6558 1 109.50000 418.400000
499 16441 16440 1 103.70004 836.800000
499 16441 16450 1 109.50000 418.400000
6558 16441 16440 1 103.70004 836.800000
6558 16441 16450 1 109.50000 418.400000
16440 16441 16450 1 103.70004 1034.033760
16440 16442 16443 1 119.8800511 375.723200
16440 16442 16444 1 120.0200517 532.790560
16443 16442 16444 1 119.8800511 375.723200
16442 16444 16445 1 119.8800511 375.723200
16442 16444 16446 1 120.0200517 532.790560
16445 16444 16446 1 119.8800511 375.723200
16444 16446 16447 1 119.8800511 375.723200
16444 16446 16448 1 120.0200517 532.790560
16447 16446 16448 1 119.8800511 375.723200
16439 16448 16446 1 120.0200517 532.790560
16439 16448 16449 1 119.8800511 375.723200
16446 16448 16449 1 119.8800511 375.723200
16441 16450 16451 1 115.00000 209.200000
16452 16453 16454 1 119.8800511 375.723200
16452 16453 16462 1 119.8800511 375.723200
16454 16453 16462 1 120.0200517 532.790560
16453 16454 16455 1 121.3800518 83.010560
16453 16454 16456 1 120.0200517 532.790560
16455 16454 16456 1 121.3800518 83.010560
1896 16455 6581 1 109.50000 418.400000
1896 16455 16454 1 103.70004 836.800000
1896 16455 16464 1 109.50000 418.400000
6581 16455 16454 1 103.70004 836.800000
6581 16455 16464 1 109.50000 418.400000
16454 16455 16464 1 103.70004 1034.033760
16454 16456 16457 1 119.8800511 375.723200
16454 16456 16458 1 120.0200517 532.790560
16457 16456 16458 1 119.8800511 375.723200
16456 16458 16459 1 119.8800511 375.723200
16456 16458 16460 1 120.0200517 532.790560
16459 16458 16460 1 119.8800511 375.723200
16458 16460 16461 1 119.8800511 375.723200
16458 16460 16462 1 120.0200517 532.790560
16461 16460 16462 1 119.8800511 375.723200
16453 16462 16460 1 120.0200517 532.790560
16453 16462 16463 1 119.8800511 375.723200
16460 16462 16463 1 119.8800511 375.723200
16455 16464 16465 1 115.00000 209.200000
16466 16467 16468 1 119.8800511 375.723200
16466 16467 16476 1 119.8800511 375.723200
16468 16467 16476 1 120.0200517 532.790560
16467 16468 16469 1 121.3800518 83.010560
16467 16468 16470 1 120.0200517 532.790560
16469 16468 16470 1 121.3800518 83.010560
512 16469 6639 1 109.50000 418.400000
512 16469 16468 1 103.70004 836.800000
512 16469 16478 1 109.50000 418.400000
6639 16469 16468 1 103.70004 836.800000
6639 16469 16478 1 109.50000 418.400000
16468 16469 16478 1 103.70004 1034.033760
16468 16470 16471 1 119.8800511 375.723200
16468 16470 16472 1 120.0200517 532.790560
16471 16470 16472 1 119.8800511 375.723200
16470 16472 16473 1 119.8800511 375.723200
16470 16472 16474 1 120.0200517 532.790560
16473 16472 16474 1 119.8800511 375.723200
16472 16474 16475 1 119.8800511 375.723200
16472 16474 16476 1 120.0200517 532.790560
16475 16474 16476 1 119.8800511 375.723200
16467 16476 16474 1 120.0200517 532.790560
16467 16476 16477 1 119.8800511 375.723200
16474 16476 16477 1 119.8800511 375.723200
16469 16478 16479 1 115.00000 209.200000
16480 16481 16482 1 119.8800511 375.723200
16480 16481 16490 1 119.8800511 375.723200
16482 16481 16490 1 120.0200517 532.790560
16481 16482 16483 1 121.3800518 83.010560
16481 16482 16484 1 120.0200517 532.790560
16483 16482 16484 1 121.3800518 83.010560
6383 16483 6658 1 109.50000 418.400000
6383 16483 16482 1 103.70004 836.800000
6383 16483 16492 1 109.50000 418.400000
6658 16483 16482 1 103.70004 836.800000
6658 16483 16492 1 109.50000 418.400000
16482 16483 16492 1 103.70004 1034.033760
16482 16484 16485 1 119.8800511 375.723200
16482 16484 16486 1 120.0200517 532.790560
16485 16484 16486 1 119.8800511 375.723200
16484 16486 16487 1 119.8800511 375.723200
16484 16486 16488 1 120.0200517 532.790560
16487 16486 16488 1 119.8800511 375.723200
16486 16488 16489 1 119.8800511 375.723200
16486 16488 16490 1 120.0200517 532.790560
16489 16488 16490 1 119.8800511 375.723200
16481 16490 16488 1 120.0200517 532.790560
16481 16490 16491 1 119.8800511 375.723200
16488 16490 16491 1 119.8800511 375.723200
16483 16492 16493 1 115.00000 209.200000
16494 16495 16496 1 119.8800511 375.723200
16494 16495 16504 1 119.8800511 375.723200
16496 16495 16504 1 120.0200517 532.790560
16495 16496 16497 1 121.3800518 83.010560
16495 16496 16498 1 120.0200517 532.790560
16497 16496 16498 1 121.3800518 83.010560
1450 16497 6725 1 109.50000 418.400000
1450 16497 16496 1 103.70004 836.800000
1450 16497 16506 1 109.50000 418.400000
6725 16497 16496 1 103.70004 836.800000
6725 16497 16506 1 109.50000 418.400000
16496 16497 16506 1 103.70004 1034.033760
16496 16498 16499 1 119.8800511 375.723200
16496 16498 16500 1 120.0200517 532.790560
16499 16498 16500 1 119.8800511 375.723200
16498 16500 16501 1 119.8800511 375.723200
16498 16500 16502 1 120.0200517 532.790560
16501 16500 16502 1 119.8800511 375.723200
16500 16502 16503 1 119.8800511 375.723200
16500 16502 16504 1 120.0200517 532.790560
16503 16502 16504 1 119.8800511 375.723200
16495 16504 16502 1 120.0200517 532.790560
16495 16504 16505 1 119.8800511 375.723200
16502 16504 16505 1 119.8800511 375.723200
16497 16506 16507 1 115.00000 209.200000
16508 16509 16510 1 119.8800511 375.723200
16508 16509 16518 1 119.8800511 375.723200
16510 16509 16518 1 120.0200517 532.790560
16509 16510 16511 1 121.3800518 83.010560
16509 16510 16512 1 120.0200517 532.790560
16511 16510 16512 1 121.3800518 83.010560
4991 16511 6726 1 109.50000 418.400000
4991 16511 16510 1 103.70004 836.800000
4991 16511 16520 1 109.50000 418.400000
6726 16511 16510 1 103.70004 836.800000
6726 16511 16520 1 109.50000 418.400000
16510 16511 16520 1 103.70004 1034.033760
16510 16512 16513 1 119.8800511 375.723200
16510 16512 16514 1 120.0200517 532.790560
16513 16512 16514 1 119.8800511 375.723200
16512 16514 16515 1 119.8800511 375.723200
16512 16514 16516 1 120.0200517 532.790560
16515 16514 16516 1 119.8800511 375.723200
16514 16516 16517 1 119.8800511 375.723200
16514 16516 16518 1 120.0200517 532.790560
16517 16516 16518 1 119.8800511 375.723200
16509 16518 16516 1 120.0200517 532.790560
16509 16518 16519 1 119.8800511 375.723200
16516 16518 16519 1 119.8800511 375.723200
16511 16520 16521 1 115.00000 209.200000
16522 16523 16524 1 119.8800511 375.723200
16522 16523 16532 1 119.8800511 375.723200
16524 16523 16532 1 120.0200517 532.790560
16523 16524 16525 1 121.3800518 83.010560
16523 16524 16526 1 120.0200517 532.790560
16525 16524 16526 1 121.3800518 83.010560
2540 16525 6901 1 109.50000 418.400000
2540 16525 16524 1 103.70004 836.800000
2540 16525 16534 1 109.50000 418.400000
6901 16525 16524 1 103.70004 836.800000
6901 16525 16534 1 109.50000 418.400000
16524 16525 16534 1 103.70004 1034.033760
16524 16526 16527 1 119.8800511 375.723200
16524 16526 16528 1 120.0200517 532.790560
16527 16526 16528 1 119.8800511 375.723200
16526 16528 16529 1 119.8800511 375.723200
16526 16528 16530 1 120.0200517 532.790560
16529 16528 16530 1 119.8800511 375.723200
16528 16530 16531 1 119.8800511 375.723200
16528 16530 16532 1 120.0200517 532.790560
16531 16530 16532 1 119.8800511 375.723200
16523 16532 16530 1 120.0200517 532.790560
16523 16532 16533 1 119.8800511 375.723200
16530 16532 16533 1 119.8800511 375.723200
16525 16534 16535 1 115.00000 209.200000
16536 16537 16538 1 119.8800511 375.723200
16536 16537 16546 1 119.8800511 375.723200
16538 16537 16546 1 120.0200517 532.790560
16537 16538 16539 1 121.3800518 83.010560
16537 16538 16540 1 120.0200517 532.790560
16539 16538 16540 1 121.3800518 83.010560
2046 16539 6921 1 109.50000 418.400000
2046 16539 16538 1 103.70004 836.800000
2046 16539 16548 1 109.50000 418.400000
6921 16539 16538 1 103.70004 836.800000
6921 16539 16548 1 109.50000 418.400000
16538 16539 16548 1 103.70004 1034.033760
16538 16540 16541 1 119.8800511 375.723200
16538 16540 16542 1 120.0200517 532.790560
16541 16540 16542 1 119.8800511 375.723200
16540 16542 16543 1 119.8800511 375.723200
16540 16542 16544 1 120.0200517 532.790560
16543 16542 16544 1 119.8800511 375.723200
16542 16544 16545 1 119.8800511 375.723200
16542 16544 16546 1 120.0200517 532.790560
16545 16544 16546 1 119.8800511 375.723200
16537 16546 16544 1 120.0200517 532.790560
16537 16546 16547 1 119.8800511 375.723200
16544 16546 16547 1 119.8800511 375.723200
16539 16548 16549 1 115.00000 209.200000
16550 16551 16552 1 119.8800511 375.723200
16550 16551 16560 1 119.8800511 375.723200
16552 16551 16560 1 120.0200517 532.790560
16551 16552 16553 1 121.3800518 83.010560
16551 16552 16554 1 120.0200517 532.790560
16553 16552 16554 1 121.3800518 83.010560
1717 16553 6926 1 109.50000 418.400000
1717 16553 16552 1 103.70004 836.800000
1717 16553 16562 1 109.50000 418.400000
6926 16553 16552 1 103.70004 836.800000
6926 16553 16562 1 109.50000 418.400000
16552 16553 16562 1 103.70004 1034.033760
16552 16554 16555 1 119.8800511 375.723200
16552 16554 16556 1 120.0200517 532.790560
16555 16554 16556 1 119.8800511 375.723200
16554 16556 16557 1 119.8800511 375.723200
16554 16556 16558 1 120.0200517 532.790560
16557 16556 16558 1 119.8800511 375.723200
16556 16558 16559 1 119.8800511 375.723200
16556 16558 16560 1 120.0200517 532.790560
16559 16558 16560 1 119.8800511 375.723200
16551 16560 16558 1 120.0200517 532.790560
16551 16560 16561 1 119.8800511 375.723200
16558 16560 16561 1 119.8800511 375.723200
16553 16562 16563 1 115.00000 209.200000
16564 16565 16566 1 119.8800511 375.723200
16564 16565 16574 1 119.8800511 375.723200
16566 16565 16574 1 120.0200517 532.790560
16565 16566 16567 1 121.3800518 83.010560
16565 16566 16568 1 120.0200517 532.790560
16567 16566 16568 1 121.3800518 83.010560
1495 16567 4981 1 109.50000 418.400000
1495 16567 16566 1 103.70004 836.800000
1495 16567 16576 1 109.50000 418.400000
4981 16567 16566 1 103.70004 836.800000
4981 16567 16576 1 109.50000 418.400000
16566 16567 16576 1 103.70004 1034.033760
16566 16568 16569 1 119.8800511 375.723200
16566 16568 16570 1 120.0200517 532.790560
16569 16568 16570 1 119.8800511 375.723200
16568 16570 16571 1 119.8800511 375.723200
16568 16570 16572 1 120.0200517 532.790560
16571 16570 16572 1 119.8800511 375.723200
16570 16572 16573 1 119.8800511 375.723200
16570 16572 16574 1 120.0200517 532.790560
16573 16572 16574 1 119.8800511 375.723200
16565 16574 16572 1 120.0200517 532.790560
16565 16574 16575 1 119.8800511 375.723200
16572 16574 16575 1 119.8800511 375.723200
16567 16576 16577 1 115.00000 209.200000
16578 16579 16580 1 119.8800511 375.723200
16578 16579 16588 1 119.8800511 375.723200
16580 16579 16588 1 120.0200517 532.790560
16579 16580 16581 1 121.3800518 83.010560
16579 16580 16582 1 120.0200517 532.790560
16581 16580 16582 1 121.3800518 83.010560
7065 16581 7066 1 109.50000 418.400000
7065 16581 16580 1 103.70004 836.800000
7065 16581 16590 1 109.50000 418.400000
7066 16581 16580 1 103.70004 836.800000
7066 16581 16590 1 109.50000 418.400000
16580 16581 16590 1 103.70004 1034.033760
16580 16582 16583 1 119.8800511 375.723200
16580 16582 16584 1 120.0200517 532.790560
16583 16582 16584 1 119.8800511 375.723200
16582 16584 16585 1 119.8800511 375.723200
16582 16584 16586 1 120.0200517 532.790560
16585 16584 16586 1 119.8800511 375.723200
16584 16586 16587 1 119.8800511 375.723200
16584 16586 16588 1 120.0200517 532.790560
16587 16586 16588 1 119.8800511 375.723200
16579 16588 16586 1 120.0200517 532.790560
16579 16588 16589 1 119.8800511 375.723200
16586 16588 16589 1 119.8800511 375.723200
16581 16590 16591 1 115.00000 209.200000
16592 16593 16594 1 119.8800511 375.723200
16592 16593 16602 1 119.8800511 375.723200
16594 16593 16602 1 120.0200517 532.790560
16593 16594 16595 1 121.3800518 83.010560
16593 16594 16596 1 120.0200517 532.790560
16595 16594 16596 1 121.3800518 83.010560
1683 16595 7171 1 109.50000 418.400000
1683 16595 16594 1 103.70004 836.800000
1683 16595 16604 1 109.50000 418.400000
7171 16595 16594 1 103.70004 836.800000
7171 16595 16604 1 109.50000 418.400000
16594 16595 16604 1 103.70004 1034.033760
16594 16596 16597 1 119.8800511 375.723200
16594 16596 16598 1 120.0200517 532.790560
16597 16596 16598 1 119.8800511 375.723200
16596 16598 16599 1 119.8800511 375.723200
16596 16598 16600 1 120.0200517 532.790560
16599 16598 16600 1 119.8800511 375.723200
16598 16600 16601 1 119.8800511 375.723200
16598 16600 16602 1 120.0200517 532.790560
16601 16600 16602 1 119.8800511 375.723200
16593 16602 16600 1 120.0200517 532.790560
16593 16602 16603 1 119.8800511 375.723200
16600 16602 16603 1 119.8800511 375.723200
16595 16604 16605 1 115.00000 209.200000
16606 16607 16608 1 119.8800511 375.723200
16606 16607 16616 1 119.8800511 375.723200
16608 16607 16616 1 120.0200517 532.790560
16607 16608 16609 1 121.3800518 83.010560
16607 16608 16610 1 120.0200517 532.790560
16609 16608 16610 1 121.3800518 83.010560
1455 16609 7180 1 109.50000 418.400000
1455 16609 16608 1 103.70004 836.800000
1455 16609 16618 1 109.50000 418.400000
7180 16609 16608 1 103.70004 836.800000
7180 16609 16618 1 109.50000 418.400000
16608 16609 16618 1 103.70004 1034.033760
16608 16610 16611 1 119.8800511 375.723200
16608 16610 16612 1 120.0200517 532.790560
16611 16610 16612 1 119.8800511 375.723200
16610 16612 16613 1 119.8800511 375.723200
16610 16612 16614 1 120.0200517 532.790560
16613 16612 16614 1 119.8800511 375.723200
16612 16614 16615 1 119.8800511 375.723200
16612 16614 16616 1 120.0200517 532.790560
16615 16614 16616 1 119.8800511 375.723200
16607 16616 16614 1 120.0200517 532.790560
16607 16616 16617 1 119.8800511 375.723200
16614 16616 16617 1 119.8800511 375.723200
16609 16618 16619 1 115.00000 209.200000
16620 16621 16622 1 119.8800511 375.723200
16620 16621 16630 1 119.8800511 375.723200
16622 16621 16630 1 120.0200517 532.790560
16621 16622 16623 1 121.3800518 83.010560
16621 16622 16624 1 120.0200517 532.790560
16623 16622 16624 1 121.3800518 83.010560
5175 16623 6186 1 109.50000 418.400000
5175 16623 16622 1 103.70004 836.800000
5175 16623 16632 1 109.50000 418.400000
6186 16623 16622 1 103.70004 836.800000
6186 16623 16632 1 109.50000 418.400000
16622 16623 16632 1 103.70004 1034.033760
16622 16624 16625 1 119.8800511 375.723200
16622 16624 16626 1 120.0200517 532.790560
16625 16624 16626 1 119.8800511 375.723200
16624 16626 16627 1 119.8800511 375.723200
16624 16626 16628 1 120.0200517 532.790560
16627 16626 16628 1 119.8800511 375.723200
16626 16628 16629 1 119.8800511 375.723200
16626 16628 16630 1 120.0200517 532.790560
16629 16628 16630 1 119.8800511 375.723200
16621 16630 16628 1 120.0200517 532.790560
16621 16630 16631 1 119.8800511 375.723200
16628 16630 16631 1 119.8800511 375.723200
16623 16632 16633 1 115.00000 209.200000
16634 16635 16636 1 119.8800511 375.723200
16634 16635 16644 1 119.8800511 375.723200
16636 16635 16644 1 120.0200517 532.790560
16635 16636 16637 1 121.3800518 83.010560
16635 16636 16638 1 120.0200517 532.790560
16637 16636 16638 1 121.3800518 83.010560
285 16637 6031 1 109.50000 418.400000
285 16637 16636 1 103.70004 836.800000
285 16637 16646 1 109.50000 418.400000
6031 16637 16636 1 103.70004 836.800000
6031 16637 16646 1 109.50000 418.400000
16636 16637 16646 1 103.70004 1034.033760
16636 16638 16639 1 119.8800511 375.723200
16636 16638 16640 1 120.0200517 532.790560
16639 16638 16640 1 119.8800511 375.723200
16638 16640 16641 1 119.8800511 375.723200
16638 16640 16642 1 120.0200517 532.790560
16641 16640 16642 1 119.8800511 375.723200
16640 16642 16643 1 119.8800511 375.723200
16640 16642 16644 1 120.0200517 532.790560
16643 16642 16644 1 119.8800511 375.723200
16635 16644 16642 1 120.0200517 532.790560
16635 16644 16645 1 119.8800511 375.723200
16642 16644 16645 1 119.8800511 375.723200
16637 16646 16647 1 115.00000 209.200000
16648 16649 16650 1 119.8800511 375.723200
16648 16649 16658 1 119.8800511 375.723200
16650 16649 16658 1 120.0200517 532.790560
16649 16650 16651 1 121.3800518 83.010560
16649 16650 16652 1 120.0200517 532.790560
16651 16650 16652 1 121.3800518 83.010560
3504 16651 6148 1 109.50000 418.400000
3504 16651 16650 1 103.70004 836.800000
3504 16651 16660 1 109.50000 418.400000
6148 16651 16650 1 103.70004 836.800000
6148 16651 16660 1 109.50000 418.400000
16650 16651 16660 1 103.70004 1034.033760
16650 16652 16653 1 119.8800511 375.723200
16650 16652 16654 1 120.0200517 532.790560
16653 16652 16654 1 119.8800511 375.723200
16652 16654 16655 1 119.8800511 375.723200
16652 16654 16656 1 120.0200517 532.790560
16655 16654 16656 1 119.8800511 375.723200
16654 16656 16657 1 119.8800511 375.723200
16654 16656 16658 1 120.0200517 532.790560
16657 16656 16658 1 119.8800511 375.723200
16649 16658 16656 1 120.0200517 532.790560
16649 16658 16659 1 119.8800511 375.723200
16656 16658 16659 1 119.8800511 375.723200
16651 16660 16661 1 115.00000 209.200000
16662 16663 16664 1 119.8800511 375.723200
16662 16663 16672 1 119.8800511 375.723200
16664 16663 16672 1 120.0200517 532.790560
16663 16664 16665 1 121.3800518 83.010560
16663 16664 16666 1 120.0200517 532.790560
16665 16664 16666 1 121.3800518 83.010560
7399 16665 7400 1 109.50000 418.400000
7399 16665 16664 1 103.70004 836.800000
7399 16665 16674 1 109.50000 418.400000
7400 16665 16664 1 103.70004 836.800000
7400 16665 16674 1 109.50000 418.400000
16664 16665 16674 1 103.70004 1034.033760
16664 16666 16667 1 119.8800511 375.723200
16664 16666 16668 1 120.0200517 532.790560
16667 16666 16668 1 119.8800511 375.723200
16666 16668 16669 1 119.8800511 375.723200
16666 16668 16670 1 120.0200517 532.790560
16669 16668 16670 1 119.8800511 375.723200
16668 16670 16671 1 119.8800511 375.723200
16668 16670 16672 1 120.0200517 532.790560
16671 16670 16672 1 119.8800511 375.723200
16663 16672 16670 1 120.0200517 532.790560
16663 16672 16673 1 119.8800511 375.723200
16670 16672 16673 1 119.8800511 375.723200
16665 16674 16675 1 115.00000 209.200000
16676 16677 16678 1 119.8800511 375.723200
16676 16677 16686 1 119.8800511 375.723200
16678 16677 16686 1 120.0200517 532.790560
16677 16678 16679 1 121.3800518 83.010560
16677 16678 16680 1 120.0200517 532.790560
16679 16678 16680 1 121.3800518 83.010560
3771 16679 5460 1 109.50000 418.400000
3771 16679 16678 1 103.70004 836.800000
3771 16679 16688 1 109.50000 418.400000
5460 16679 16678 1 103.70004 836.800000
5460 16679 16688 1 109.50000 418.400000
16678 16679 16688 1 103.70004 1034.033760
16678 16680 16681 1 119.8800511 375.723200
16678 16680 16682 1 120.0200517 532.790560
16681 16680 16682 1 119.8800511 375.723200
16680 16682 16683 1 119.8800511 375.723200
16680 16682 16684 1 120.0200517 532.790560
16683 16682 16684 1 119.8800511 375.723200
16682 16684 16685 1 119.8800511 375.723200
16682 16684 16686 1 120.0200517 532.790560
16685 16684 16686 1 119.8800511 375.723200
16677 16686 16684 1 120.0200517 532.790560
16677 16686 16687 1 119.8800511 375.723200
16684 16686 16687 1 119.8800511 375.723200
16679 16688 16689 1 115.00000 209.200000
16690 16691 16692 1 119.8800511 375.723200
16690 16691 16700 1 119.8800511 375.723200
16692 16691 16700 1 120.0200517 532.790560
16691 16692 16693 1 121.3800518 83.010560
16691 16692 16694 1 120.0200517 532.790560
16693 16692 16694 1 121.3800518 83.010560
7066 16693 7470 1 109.50000 418.400000
7066 16693 16692 1 103.70004 836.800000
7066 16693 16702 1 109.50000 418.400000
7470 16693 16692 1 103.70004 836.800000
7470 16693 16702 1 109.50000 418.400000
16692 16693 16702 1 103.70004 1034.033760
16692 16694 16695 1 119.8800511 375.723200
16692 16694 16696 1 120.0200517 532.790560
16695 16694 16696 1 119.8800511 375.723200
16694 16696 16697 1 119.8800511 375.723200
16694 16696 16698 1 120.0200517 532.790560
16697 16696 16698 1 119.8800511 375.723200
16696 16698 16699 1 119.8800511 375.723200
16696 16698 16700 1 120.0200517 532.790560
16699 16698 16700 1 119.8800511 375.723200
16691 16700 16698 1 120.0200517 532.790560
16691 16700 16701 1 119.8800511 375.723200
16698 16700 16701 1 119.8800511 375.723200
16693 16702 16703 1 115.00000 209.200000
16704 16705 16706 1 119.8800511 375.723200
16704 16705 16714 1 119.8800511 375.723200
16706 16705 16714 1 120.0200517 532.790560
16705 16706 16707 1 121.3800518 83.010560
16705 16706 16708 1 120.0200517 532.790560
16707 16706 16708 1 121.3800518 83.010560
5834 16707 7510 1 109.50000 418.400000
5834 16707 16706 1 103.70004 836.800000
5834 16707 16716 1 109.50000 418.400000
7510 16707 16706 1 103.70004 836.800000
7510 16707 16716 1 109.50000 418.400000
16706 16707 16716 1 103.70004 1034.033760
16706 16708 16709 1 119.8800511 375.723200
16706 16708 16710 1 120.0200517 532.790560
16709 16708 16710 1 119.8800511 375.723200
16708 16710 16711 1 119.8800511 375.723200
16708 16710 16712 1 120.0200517 532.790560
16711 16710 16712 1 119.8800511 375.723200
16710 16712 16713 1 119.8800511 375.723200
16710 16712 16714 1 120.0200517 532.790560
16713 16712 16714 1 119.8800511 375.723200
16705 16714 16712 1 120.0200517 532.790560
16705 16714 16715 1 119.8800511 375.723200
16712 16714 16715 1 119.8800511 375.723200
16707 16716 16717 1 115.00000 209.200000
16718 16719 16720 1 119.8800511 375.723200
16718 16719 16728 1 119.8800511 375.723200
16720 16719 16728 1 120.0200517 532.790560
16719 16720 16721 1 121.3800518 83.010560
16719 16720 16722 1 120.0200517 532.790560
16721 16720 16722 1 121.3800518 83.010560
7528 16721 7529 1 109.50000 418.400000
7528 16721 16720 1 103.70004 836.800000
7528 16721 16730 1 109.50000 418.400000
7529 16721 16720 1 103.70004 836.800000
7529 16721 16730 1 109.50000 418.400000
16720 16721 16730 1 103.70004 1034.033760
16720 16722 16723 1 119.8800511 375.723200
16720 16722 16724 1 120.0200517 532.790560
16723 16722 16724 1 119.8800511 375.723200
16722 16724 16725 1 119.8800511 375.723200
16722 16724 16726 1 120.0200517 532.790560
16725 16724 16726 1 119.8800511 375.723200
16724 16726 16727 1 119.8800511 375.723200
16724 16726 16728 1 120.0200517 532.790560
16727 16726 16728 1 119.8800511 375.723200
16719 16728 16726 1 120.0200517 532.790560
16719 16728 16729 1 119.8800511 375.723200
16726 16728 16729 1 119.8800511 375.723200
16721 16730 16731 1 115.00000 209.200000
16732 16733 16734 1 119.8800511 375.723200
16732 16733 16742 1 119.8800511 375.723200
16734 16733 16742 1 120.0200517 532.790560
16733 16734 16735 1 121.3800518 83.010560
16733 16734 16736 1 120.0200517 532.790560
16735 16734 16736 1 121.3800518 83.010560
5845 16735 7559 1 109.50000 418.400000
5845 16735 16734 1 103.70004 836.800000
5845 16735 16744 1 109.50000 418.400000
7559 16735 16734 1 103.70004 836.800000
7559 16735 16744 1 109.50000 418.400000
16734 16735 16744 1 103.70004 1034.033760
16734 16736 16737 1 119.8800511 375.723200
16734 16736 16738 1 120.0200517 532.790560
16737 16736 16738 1 119.8800511 375.723200
16736 16738 16739 1 119.8800511 375.723200
16736 16738 16740 1 120.0200517 532.790560
16739 16738 16740 1 119.8800511 375.723200
16738 16740 16741 1 119.8800511 375.723200
16738 16740 16742 1 120.0200517 532.790560
16741 16740 16742 1 119.8800511 375.723200
16733 16742 16740 1 120.0200517 532.790560
16733 16742 16743 1 119.8800511 375.723200
16740 16742 16743 1 119.8800511 375.723200
16735 16744 16745 1 115.00000 209.200000
16746 16747 16748 1 119.8800511 375.723200
16746 16747 16756 1 119.8800511 375.723200
16748 16747 16756 1 120.0200517 532.790560
16747 16748 16749 1 121.3800518 83.010560
16747 16748 16750 1 120.0200517 532.790560
16749 16748 16750 1 121.3800518 83.010560
6486 16749 7363 1 109.50000 418.400000
6486 16749 16748 1 103.70004 836.800000
6486 16749 16758 1 109.50000 418.400000
7363 16749 16748 1 103.70004 836.800000
7363 16749 16758 1 109.50000 418.400000
16748 16749 16758 1 103.70004 1034.033760
16748 16750 16751 1 119.8800511 375.723200
16748 16750 16752 1 120.0200517 532.790560
16751 16750 16752 1 119.8800511 375.723200
16750 16752 16753 1 119.8800511 375.723200
16750 16752 16754 1 120.0200517 532.790560
16753 16752 16754 1 119.8800511 375.723200
16752 16754 16755 1 119.8800511 375.723200
16752 16754 16756 1 120.0200517 532.790560
16755 16754 16756 1 119.8800511 375.723200
16747 16756 16754 1 120.0200517 532.790560
16747 16756 16757 1 119.8800511 375.723200
16754 16756 16757 1 119.8800511 375.723200
16749 16758 16759 1 115.00000 209.200000
16760 16761 16762 1 119.8800511 375.723200
16760 16761 16770 1 119.8800511 375.723200
16762 16761 16770 1 120.0200517 532.790560
16761 16762 16763 1 121.3800518 83.010560
16761 16762 16764 1 120.0200517 532.790560
16763 16762 16764 1 121.3800518 83.010560
3189 16763 6057 1 109.50000 418.400000
3189 16763 16762 1 103.70004 836.800000
3189 16763 16772 1 109.50000 418.400000
6057 16763 16762 1 103.70004 836.800000
6057 16763 16772 1 109.50000 418.400000
16762 16763 16772 1 103.70004 1034.033760
16762 16764 16765 1 119.8800511 375.723200
16762 16764 16766 1 120.0200517 532.790560
16765 16764 16766 1 119.8800511 375.723200
16764 16766 16767 1 119.8800511 375.723200
16764 16766 16768 1 120.0200517 532.790560
16767 16766 16768 1 119.8800511 375.723200
16766 16768 16769 1 119.8800511 375.723200
16766 16768 16770 1 120.0200517 532.790560
16769 16768 16770 1 119.8800511 375.723200
16761 16770 16768 1 120.0200517 532.790560
16761 16770 16771 1 119.8800511 375.723200
16768 16770 16771 1 119.8800511 375.723200
16763 16772 16773 1 115.00000 209.200000
16774 16775 16776 1 119.8800511 375.723200
16774 16775 16784 1 119.8800511 375.723200
16776 16775 16784 1 120.0200517 532.790560
16775 16776 16777 1 121.3800518 83.010560
16775 16776 16778 1 120.0200517 532.790560
16777 16776 16778 1 121.3800518 83.010560
3035 16777 7636 1 109.50000 418.400000
3035 16777 16776 1 103.70004 836.800000
3035 16777 16786 1 109.50000 418.400000
7636 16777 16776 1 103.70004 836.800000
7636 16777 16786 1 109.50000 418.400000
16776 16777 16786 1 103.70004 1034.033760
16776 16778 16779 1 119.8800511 375.723200
16776 16778 16780 1 120.0200517 532.790560
16779 16778 16780 1 119.8800511 375.723200
16778 16780 16781 1 119.8800511 375.723200
16778 16780 16782 1 120.0200517 532.790560
16781 16780 16782 1 119.8800511 375.723200
16780 16782 16783 1 119.8800511 375.723200
16780 16782 16784 1 120.0200517 532.790560
16783 16782 16784 1 119.8800511 375.723200
16775 16784 16782 1 120.0200517 532.790560
16775 16784 16785 1 119.8800511 375.723200
16782 16784 16785 1 119.8800511 375.723200
16777 16786 16787 1 115.00000 209.200000
16788 16789 16790 1 119.8800511 375.723200
16788 16789 16798 1 119.8800511 375.723200
16790 16789 16798 1 120.0200517 532.790560
16789 16790 16791 1 121.3800518 83.010560
16789 16790 16792 1 120.0200517 532.790560
16791 16790 16792 1 121.3800518 83.010560
7661 16791 7662 1 109.50000 418.400000
7661 16791 16790 1 103.70004 836.800000
7661 16791 16800 1 109.50000 418.400000
7662 16791 16790 1 103.70004 836.800000
7662 16791 16800 1 109.50000 418.400000
16790 16791 16800 1 103.70004 1034.033760
16790 16792 16793 1 119.8800511 375.723200
16790 16792 16794 1 120.0200517 532.790560
16793 16792 16794 1 119.8800511 375.723200
16792 16794 16795 1 119.8800511 375.723200
16792 16794 16796 1 120.0200517 532.790560
16795 16794 16796 1 119.8800511 375.723200
16794 16796 16797 1 119.8800511 375.723200
16794 16796 16798 1 120.0200517 532.790560
16797 16796 16798 1 119.8800511 375.723200
16789 16798 16796 1 120.0200517 532.790560
16789 16798 16799 1 119.8800511 375.723200
16796 16798 16799 1 119.8800511 375.723200
16791 16800 16801 1 115.00000 209.200000
16802 16803 16804 1 119.8800511 375.723200
16802 16803 16812 1 119.8800511 375.723200
16804 16803 16812 1 120.0200517 532.790560
16803 16804 16805 1 121.3800518 83.010560
16803 16804 16806 1 120.0200517 532.790560
16805 16804 16806 1 121.3800518 83.010560
6379 16805 7686 1 109.50000 418.400000
6379 16805 16804 1 103.70004 836.800000
6379 16805 16814 1 109.50000 418.400000
7686 16805 16804 1 103.70004 836.800000
7686 16805 16814 1 109.50000 418.400000
16804 16805 16814 1 103.70004 1034.033760
16804 16806 16807 1 119.8800511 375.723200
16804 16806 16808 1 120.0200517 532.790560
16807 16806 16808 1 119.8800511 375.723200
16806 16808 16809 1 119.8800511 375.723200
16806 16808 16810 1 120.0200517 532.790560
16809 16808 16810 1 119.8800511 375.723200
16808 16810 16811 1 119.8800511 375.723200
16808 16810 16812 1 120.0200517 532.790560
16811 16810 16812 1 119.8800511 375.723200
16803 16812 16810 1 120.0200517 532.790560
16803 16812 16813 1 119.8800511 375.723200
16810 16812 16813 1 119.8800511 375.723200
16805 16814 16815 1 115.00000 209.200000
16816 16817 16818 1 119.8800511 375.723200
16816 16817 16826 1 119.8800511 375.723200
16818 16817 16826 1 120.0200517 532.790560
16817 16818 16819 1 121.3800518 83.010560
16817 16818 16820 1 120.0200517 532.790560
16819 16818 16820 1 121.3800518 83.010560
7812 16819 7813 1 109.50000 418.400000
7812 16819 16818 1 103.70004 836.800000
7812 16819 16828 1 109.50000 418.400000
7813 16819 16818 1 103.70004 836.800000
7813 16819 16828 1 109.50000 418.400000
16818 16819 16828 1 103.70004 1034.033760
16818 16820 16821 1 119.8800511 375.723200
16818 16820 16822 1 120.0200517 532.790560
16821 16820 16822 1 119.8800511 375.723200
16820 16822 16823 1 119.8800511 375.723200
16820 16822 16824 1 120.0200517 532.790560
16823 16822 16824 1 119.8800511 375.723200
16822 16824 16825 1 119.8800511 375.723200
16822 16824 16826 1 120.0200517 532.790560
16825 16824 16826 1 119.8800511 375.723200
16817 16826 16824 1 120.0200517 532.790560
16817 16826 16827 1 119.8800511 375.723200
16824 16826 16827 1 119.8800511 375.723200
16819 16828 16829 1 115.00000 209.200000
16830 16831 16832 1 119.8800511 375.723200
16830 16831 16840 1 119.8800511 375.723200
16832 16831 16840 1 120.0200517 532.790560
16831 16832 16833 1 121.3800518 83.010560
16831 16832 16834 1 120.0200517 532.790560
16833 16832 16834 1 121.3800518 83.010560
3425 16833 7859 1 109.50000 418.400000
3425 16833 16832 1 103.70004 836.800000
3425 16833 16842 1 109.50000 418.400000
7859 16833 16832 1 103.70004 836.800000
7859 16833 16842 1 109.50000 418.400000
16832 16833 16842 1 103.70004 1034.033760
16832 16834 16835 1 119.8800511 375.723200
16832 16834 16836 1 120.0200517 532.790560
16835 16834 16836 1 119.8800511 375.723200
16834 16836 16837 1 119.8800511 375.723200
16834 16836 16838 1 120.0200517 532.790560
16837 16836 16838 1 119.8800511 375.723200
16836 16838 16839 1 119.8800511 375.723200
16836 16838 16840 1 120.0200517 532.790560
16839 16838 16840 1 119.8800511 375.723200
16831 16840 16838 1 120.0200517 532.790560
16831 16840 16841 1 119.8800511 375.723200
16838 16840 16841 1 119.8800511 375.723200
16833 16842 16843 1 115.00000 209.200000
16844 16845 16846 1 119.8800511 375.723200
16844 16845 16854 1 119.8800511 375.723200
16846 16845 16854 1 120.0200517 532.790560
16845 16846 16847 1 121.3800518 83.010560
16845 16846 16848 1 120.0200517 532.790560
16847 16846 16848 1 121.3800518 83.010560
4207 16847 7945 1 109.50000 418.400000
4207 16847 16846 1 103.70004 836.800000
4207 16847 16856 1 109.50000 418.400000
7945 16847 16846 1 103.70004 836.800000
7945 16847 16856 1 109.50000 418.400000
16846 16847 16856 1 103.70004 1034.033760
16846 16848 16849 1 119.8800511 375.723200
16846 16848 16850 1 120.0200517 532.790560
16849 16848 16850 1 119.8800511 375.723200
16848 16850 16851 1 119.8800511 375.723200
16848 16850 16852 1 120.0200517 532.790560
16851 16850 16852 1 119.8800511 375.723200
16850 16852 16853 1 119.8800511 375.723200
16850 16852 16854 1 120.0200517 532.790560
16853 16852 16854 1 119.8800511 375.723200
16845 16854 16852 1 120.0200517 532.790560
16845 16854 16855 1 119.8800511 375.723200
16852 16854 16855 1 119.8800511 375.723200
16847 16856 16857 1 115.00000 209.200000
16858 16859 16860 1 119.8800511 375.723200
16858 16859 16868 1 119.8800511 375.723200
16860 16859 16868 1 120.0200517 532.790560
16859 16860 16861 1 121.3800518 83.010560
16859 16860 16862 1 120.0200517 532.790560
16861 16860 16862 1 121.3800518 83.010560
7580 16861 9549 1 109.50000 418.400000
7580 16861 16860 1 103.70004 836.800000
7580 16861 16870 1 109.50000 418.400000
9549 16861 16860 1 103.70004 836.800000
9549 16861 16870 1 109.50000 418.400000
16860 16861 16870 1 103.70004 1034.033760
16860 16862 16863 1 119.8800511 375.723200
16860 16862 16864 1 120.0200517 532.790560
16863 16862 16864 1 119.8800511 375.723200
16862 16864 16865 1 119.8800511 375.723200
16862 16864 16866 1 120.0200517 532.790560
16865 16864 16866 1 119.8800511 375.723200
16864 16866 16867 1 119.8800511 375.723200
16864 16866 16868 1 120.0200517 532.790560
16867 16866 16868 1 119.8800511 375.723200
16859 16868 16866 1 120.0200517 532.790560
16859 16868 16869 1 119.8800511 375.723200
16866 16868 16869 1 119.8800511 375.723200
16861 16870 16871 1 115.00000 209.200000
16872 16873 16874 1 119.8800511 375.723200
16872 16873 16882 1 119.8800511 375.723200
16874 16873 16882 1 120.0200517 532.790560
16873 16874 16875 1 121.3800518 83.010560
16873 16874 16876 1 120.0200517 532.790560
16875 16874 16876 1 121.3800518 83.010560
8012 16875 8013 1 109.50000 418.400000
8012 16875 16874 1 103.70004 836.800000
8012 16875 16884 1 109.50000 418.400000
8013 16875 16874 1 103.70004 836.800000
8013 16875 16884 1 109.50000 418.400000
16874 16875 16884 1 103.70004 1034.033760
16874 16876 16877 1 119.8800511 375.723200
16874 16876 16878 1 120.0200517 532.790560
16877 16876 16878 1 119.8800511 375.723200
16876 16878 16879 1 119.8800511 375.723200
16876 16878 16880 1 120.0200517 532.790560
16879 16878 16880 1 119.8800511 375.723200
16878 16880 16881 1 119.8800511 375.723200
16878 16880 16882 1 120.0200517 532.790560
16881 16880 16882 1 119.8800511 375.723200
16873 16882 16880 1 120.0200517 532.790560
16873 16882 16883 1 119.8800511 375.723200
16880 16882 16883 1 119.8800511 375.723200
16875 16884 16885 1 115.00000 209.200000
16886 16887 16888 1 119.8800511 375.723200
16886 16887 16896 1 119.8800511 375.723200
16888 16887 16896 1 120.0200517 532.790560
16887 16888 16889 1 121.3800518 83.010560
16887 16888 16890 1 120.0200517 532.790560
16889 16888 16890 1 121.3800518 83.010560
6646 16889 8043 1 109.50000 418.400000
6646 16889 16888 1 103.70004 836.800000
6646 16889 16898 1 109.50000 418.400000
8043 16889 16888 1 103.70004 836.800000
8043 16889 16898 1 109.50000 418.400000
16888 16889 16898 1 103.70004 1034.033760
16888 16890 16891 1 119.8800511 375.723200
16888 16890 16892 1 120.0200517 532.790560
16891 16890 16892 1 119.8800511 375.723200
16890 16892 16893 1 119.8800511 375.723200
16890 16892 16894 1 120.0200517 532.790560
16893 16892 16894 1 119.8800511 375.723200
16892 16894 16895 1 119.8800511 375.723200
16892 16894 16896 1 120.0200517 532.790560
16895 16894 16896 1 119.8800511 375.723200
16887 16896 16894 1 120.0200517 532.790560
16887 16896 16897 1 119.8800511 375.723200
16894 16896 16897 1 119.8800511 375.723200
16889 16898 16899 1 115.00000 209.200000
16900 16901 16902 1 119.8800511 375.723200
16900 16901 16910 1 119.8800511 375.723200
16902 16901 16910 1 120.0200517 532.790560
16901 16902 16903 1 121.3800518 83.010560
16901 16902 16904 1 120.0200517 532.790560
16903 16902 16904 1 121.3800518 83.010560
24 16903 8067 1 109.50000 418.400000
24 16903 16902 1 103.70004 836.800000
24 16903 16912 1 109.50000 418.400000
8067 16903 16902 1 103.70004 836.800000
8067 16903 16912 1 109.50000 418.400000
16902 16903 16912 1 103.70004 1034.033760
16902 16904 16905 1 119.8800511 375.723200
16902 16904 16906 1 120.0200517 532.790560
16905 16904 16906 1 119.8800511 375.723200
16904 16906 16907 1 119.8800511 375.723200
16904 16906 16908 1 120.0200517 532.790560
16907 16906 16908 1 119.8800511 375.723200
16906 16908 16909 1 119.8800511 375.723200
16906 16908 16910 1 120.0200517 532.790560
16909 16908 16910 1 119.8800511 375.723200
16901 16910 16908 1 120.0200517 532.790560
16901 16910 16911 1 119.8800511 375.723200
16908 16910 16911 1 119.8800511 375.723200
16903 16912 16913 1 115.00000 209.200000
16914 16915 16916 1 119.8800511 375.723200
16914 16915 16924 1 119.8800511 375.723200
16916 16915 16924 1 120.0200517 532.790560
16915 16916 16917 1 121.3800518 83.010560
16915 16916 16918 1 120.0200517 532.790560
16917 16916 16918 1 121.3800518 83.010560
5561 16917 8198 1 109.50000 418.400000
5561 16917 16916 1 103.70004 836.800000
5561 16917 16926 1 109.50000 418.400000
8198 16917 16916 1 103.70004 836.800000
8198 16917 16926 1 109.50000 418.400000
16916 16917 16926 1 103.70004 1034.033760
16916 16918 16919 1 119.8800511 375.723200
16916 16918 16920 1 120.0200517 532.790560
16919 16918 16920 1 119.8800511 375.723200
16918 16920 16921 1 119.8800511 375.723200
16918 16920 16922 1 120.0200517 532.790560
16921 16920 16922 1 119.8800511 375.723200
16920 16922 16923 1 119.8800511 375.723200
16920 16922 16924 1 120.0200517 532.790560
16923 16922 16924 1 119.8800511 375.723200
16915 16924 16922 1 120.0200517 532.790560
16915 16924 16925 1 119.8800511 375.723200
16922 16924 16925 1 119.8800511 375.723200
16917 16926 16927 1 115.00000 209.200000
16928 16929 16930 1 119.8800511 375.723200
16928 16929 16938 1 119.8800511 375.723200
16930 16929 16938 1 120.0200517 532.790560
16929 16930 16931 1 121.3800518 83.010560
16929 16930 16932 1 120.0200517 532.790560
16931 16930 16932 1 121.3800518 83.010560
7860 16931 8222 1 109.50000 418.400000
7860 16931 16930 1 103.70004 836.800000
7860 16931 16940 1 109.50000 418.400000
8222 16931 16930 1 103.70004 836.800000
8222 16931 16940 1 109.50000 418.400000
16930 16931 16940 1 103.70004 1034.033760
16930 16932 16933 1 119.8800511 375.723200
16930 16932 16934 1 120.0200517 532.790560
16933 16932 16934 1 119.8800511 375.723200
16932 16934 16935 1 119.8800511 375.723200
16932 16934 16936 1 120.0200517 532.790560
16935 16934 16936 1 119.8800511 375.723200
16934 16936 16937 1 119.8800511 375.723200
16934 16936 16938 1 120.0200517 532.790560
16937 16936 16938 1 119.8800511 375.723200
16929 16938 16936 1 120.0200517 532.790560
16929 16938 16939 1 119.8800511 375.723200
16936 16938 16939 1 119.8800511 375.723200
16931 16940 16941 1 115.00000 209.200000
16942 16943 16944 1 119.8800511 375.723200
16942 16943 16952 1 119.8800511 375.723200
16944 16943 16952 1 120.0200517 532.790560
16943 16944 16945 1 121.3800518 83.010560
16943 16944 16946 1 120.0200517 532.790560
16945 16944 16946 1 121.3800518 83.010560
205 16945 1944 1 109.50000 418.400000
205 16945 16944 1 103.70004 836.800000
205 16945 16954 1 109.50000 418.400000
1944 16945 16944 1 103.70004 836.800000
1944 16945 16954 1 109.50000 418.400000
16944 16945 16954 1 103.70004 1034.033760
16944 16946 16947 1 119.8800511 375.723200
16944 16946 16948 1 120.0200517 532.790560
16947 16946 16948 1 119.8800511 375.723200
16946 16948 16949 1 119.8800511 375.723200
16946 16948 16950 1 120.0200517 532.790560
16949 16948 16950 1 119.8800511 375.723200
16948 16950 16951 1 119.8800511 375.723200
16948 16950 16952 1 120.0200517 532.790560
16951 16950 16952 1 119.8800511 375.723200
16943 16952 16950 1 120.0200517 532.790560
16943 16952 16953 1 119.8800511 375.723200
16950 16952 16953 1 119.8800511 375.723200
16945 16954 16955 1 115.00000 209.200000
16956 16957 16958 1 119.8800511 375.723200
16956 16957 16966 1 119.8800511 375.723200
16958 16957 16966 1 120.0200517 532.790560
16957 16958 16959 1 121.3800518 83.010560
16957 16958 16960 1 120.0200517 532.790560
16959 16958 16960 1 121.3800518 83.010560
1742 16959 4270 1 109.50000 418.400000
1742 16959 16958 1 103.70004 836.800000
1742 16959 16968 1 109.50000 418.400000
4270 16959 16958 1 103.70004 836.800000
4270 16959 16968 1 109.50000 418.400000
16958 16959 16968 1 103.70004 1034.033760
16958 16960 16961 1 119.8800511 375.723200
16958 16960 16962 1 120.0200517 532.790560
16961 16960 16962 1 119.8800511 375.723200
16960 16962 16963 1 119.8800511 375.723200
16960 16962 16964 1 120.0200517 532.790560
16963 16962 16964 1 119.8800511 375.723200
16962 16964 16965 1 119.8800511 375.723200
16962 16964 16966 1 120.0200517 532.790560
16965 16964 16966 1 119.8800511 375.723200
16957 16966 16964 1 120.0200517 532.790560
16957 16966 16967 1 119.8800511 375.723200
16964 16966 16967 1 119.8800511 375.723200
16959 16968 16969 1 115.00000 209.200000
16970 16971 16972 1 119.8800511 375.723200
16970 16971 16980 1 119.8800511 375.723200
16972 16971 16980 1 120.0200517 532.790560
16971 16972 16973 1 121.3800518 83.010560
16971 16972 16974 1 120.0200517 532.790560
16973 16972 16974 1 121.3800518 83.010560
775 16973 8265 1 109.50000 418.400000
775 16973 16972 1 103.70004 836.800000
775 16973 16982 1 109.50000 418.400000
8265 16973 16972 1 103.70004 836.800000
8265 16973 16982 1 109.50000 418.400000
16972 16973 16982 1 103.70004 1034.033760
16972 16974 16975 1 119.8800511 375.723200
16972 16974 16976 1 120.0200517 532.790560
16975 16974 16976 1 119.8800511 375.723200
16974 16976 16977 1 119.8800511 375.723200
16974 16976 16978 1 120.0200517 532.790560
16977 16976 16978 1 119.8800511 375.723200
16976 16978 16979 1 119.8800511 375.723200
16976 16978 16980 1 120.0200517 532.790560
16979 16978 16980 1 119.8800511 375.723200
16971 16980 16978 1 120.0200517 532.790560
16971 16980 16981 1 119.8800511 375.723200
16978 16980 16981 1 119.8800511 375.723200
16973 16982 16983 1 115.00000 209.200000
16984 16985 16986 1 119.8800511 375.723200
16984 16985 16994 1 119.8800511 375.723200
16986 16985 16994 1 120.0200517 532.790560
16985 16986 16987 1 121.3800518 83.010560
16985 16986 16988 1 120.0200517 532.790560
16987 16986 16988 1 121.3800518 83.010560
8276 16987 10397 1 109.50000 418.400000
8276 16987 16986 1 103.70004 836.800000
8276 16987 16996 1 109.50000 418.400000
10397 16987 16986 1 103.70004 836.800000
10397 16987 16996 1 109.50000 418.400000
16986 16987 16996 1 103.70004 1034.033760
16986 16988 16989 1 119.8800511 375.723200
16986 16988 16990 1 120.0200517 532.790560
16989 16988 16990 1 119.8800511 375.723200
16988 16990 16991 1 119.8800511 375.723200
16988 16990 16992 1 120.0200517 532.790560
16991 16990 16992 1 119.8800511 375.723200
16990 16992 16993 1 119.8800511 375.723200
16990 16992 16994 1 120.0200517 532.790560
16993 16992 16994 1 119.8800511 375.723200
16985 16994 16992 1 120.0200517 532.790560
16985 16994 16995 1 119.8800511 375.723200
16992 16994 16995 1 119.8800511 375.723200
16987 16996 16997 1 115.00000 209.200000
16998 16999 17000 1 119.8800511 375.723200
16998 16999 17008 1 119.8800511 375.723200
17000 16999 17008 1 120.0200517 532.790560
16999 17000 17001 1 121.3800518 83.010560
16999 17000 17002 1 120.0200517 532.790560
17001 17000 17002 1 121.3800518 83.010560
8288 17001 8289 1 109.50000 418.400000
8288 17001 17000 1 103.70004 836.800000
8288 17001 17010 1 109.50000 418.400000
8289 17001 17000 1 103.70004 836.800000
8289 17001 17010 1 109.50000 418.400000
17000 17001 17010 1 103.70004 1034.033760
17000 17002 17003 1 119.8800511 375.723200
17000 17002 17004 1 120.0200517 532.790560
17003 17002 17004 1 119.8800511 375.723200
17002 17004 17005 1 119.8800511 375.723200
17002 17004 17006 1 120.0200517 532.790560
17005 17004 17006 1 119.8800511 375.723200
17004 17006 17007 1 119.8800511 375.723200
17004 17006 17008 1 120.0200517 532.790560
17007 17006 17008 1 119.8800511 375.723200
16999 17008 17006 1 120.0200517 532.790560
16999 17008 17009 1 119.8800511 375.723200
17006 17008 17009 1 119.8800511 375.723200
17001 17010 17011 1 115.00000 209.200000
17012 17013 17014 1 119.8800511 375.723200
17012 17013 17022 1 119.8800511 375.723200
17014 17013 17022 1 120.0200517 532.790560
17013 17014 17015 1 121.3800518 83.010560
17013 17014 17016 1 120.0200517 532.790560
17015 17014 17016 1 121.3800518 83.010560
943 17015 8371 1 109.50000 418.400000
943 17015 17014 1 103.70004 836.800000
943 17015 17024 1 109.50000 418.400000
8371 17015 17014 1 103.70004 836.800000
8371 17015 17024 1 109.50000 418.400000
17014 17015 17024 1 103.70004 1034.033760
17014 17016 17017 1 119.8800511 375.723200
17014 17016 17018 1 120.0200517 532.790560
17017 17016 17018 1 119.8800511 375.723200
17016 17018 17019 1 119.8800511 375.723200
17016 17018 17020 1 120.0200517 532.790560
17019 17018 17020 1 119.8800511 375.723200
17018 17020 17021 1 119.8800511 375.723200
17018 17020 17022 1 120.0200517 532.790560
17021 17020 17022 1 119.8800511 375.723200
17013 17022 17020 1 120.0200517 532.790560
17013 17022 17023 1 119.8800511 375.723200
17020 17022 17023 1 119.8800511 375.723200
17015 17024 17025 1 115.00000 209.200000
17026 17027 17028 1 119.8800511 375.723200
17026 17027 17036 1 119.8800511 375.723200
17028 17027 17036 1 120.0200517 532.790560
17027 17028 17029 1 121.3800518 83.010560
17027 17028 17030 1 120.0200517 532.790560
17029 17028 17030 1 121.3800518 83.010560
2494 17029 6827 1 109.50000 418.400000
2494 17029 17028 1 103.70004 836.800000
2494 17029 17038 1 109.50000 418.400000
6827 17029 17028 1 103.70004 836.800000
6827 17029 17038 1 109.50000 418.400000
17028 17029 17038 1 103.70004 1034.033760
17028 17030 17031 1 119.8800511 375.723200
17028 17030 17032 1 120.0200517 532.790560
17031 17030 17032 1 119.8800511 375.723200
17030 17032 17033 1 119.8800511 375.723200
17030 17032 17034 1 120.0200517 532.790560
17033 17032 17034 1 119.8800511 375.723200
17032 17034 17035 1 119.8800511 375.723200
17032 17034 17036 1 120.0200517 532.790560
17035 17034 17036 1 119.8800511 375.723200
17027 17036 17034 1 120.0200517 532.790560
17027 17036 17037 1 119.8800511 375.723200
17034 17036 17037 1 119.8800511 375.723200
17029 17038 17039 1 115.00000 209.200000
17040 17041 17042 1 119.8800511 375.723200
17040 17041 17050 1 119.8800511 375.723200
17042 17041 17050 1 120.0200517 532.790560
17041 17042 17043 1 121.3800518 83.010560
17041 17042 17044 1 120.0200517 532.790560
17043 17042 17044 1 121.3800518 83.010560
601 17043 8459 1 109.50000 418.400000
601 17043 17042 1 103.70004 836.800000
601 17043 17052 1 109.50000 418.400000
8459 17043 17042 1 103.70004 836.800000
8459 17043 17052 1 109.50000 418.400000
17042 17043 17052 1 103.70004 1034.033760
17042 17044 17045 1 119.8800511 375.723200
17042 17044 17046 1 120.0200517 532.790560
17045 17044 17046 1 119.8800511 375.723200
17044 17046 17047 1 119.8800511 375.723200
17044 17046 17048 1 120.0200517 532.790560
17047 17046 17048 1 119.8800511 375.723200
17046 17048 17049 1 119.8800511 375.723200
17046 17048 17050 1 120.0200517 532.790560
17049 17048 17050 1 119.8800511 375.723200
17041 17050 17048 1 120.0200517 532.790560
17041 17050 17051 1 119.8800511 375.723200
17048 17050 17051 1 119.8800511 375.723200
17043 17052 17053 1 115.00000 209.200000
17054 17055 17056 1 119.8800511 375.723200
17054 17055 17064 1 119.8800511 375.723200
17056 17055 17064 1 120.0200517 532.790560
17055 17056 17057 1 121.3800518 83.010560
17055 17056 17058 1 120.0200517 532.790560
17057 17056 17058 1 121.3800518 83.010560
7980 17057 8501 1 109.50000 418.400000
7980 17057 17056 1 103.70004 836.800000
7980 17057 17066 1 109.50000 418.400000
8501 17057 17056 1 103.70004 836.800000
8501 17057 17066 1 109.50000 418.400000
17056 17057 17066 1 103.70004 1034.033760
17056 17058 17059 1 119.8800511 375.723200
17056 17058 17060 1 120.0200517 532.790560
17059 17058 17060 1 119.8800511 375.723200
17058 17060 17061 1 119.8800511 375.723200
17058 17060 17062 1 120.0200517 532.790560
17061 17060 17062 1 119.8800511 375.723200
17060 17062 17063 1 119.8800511 375.723200
17060 17062 17064 1 120.0200517 532.790560
17063 17062 17064 1 119.8800511 375.723200
17055 17064 17062 1 120.0200517 532.790560
17055 17064 17065 1 119.8800511 375.723200
17062 17064 17065 1 119.8800511 375.723200
17057 17066 17067 1 115.00000 209.200000
17068 17069 17070 1 119.8800511 375.723200
17068 17069 17078 1 119.8800511 375.723200
17070 17069 17078 1 120.0200517 532.790560
17069 17070 17071 1 121.3800518 83.010560
17069 17070 17072 1 120.0200517 532.790560
17071 17070 17072 1 121.3800518 83.010560
5258 17071 6199 1 109.50000 418.400000
5258 17071 17070 1 103.70004 836.800000
5258 17071 17080 1 109.50000 418.400000
6199 17071 17070 1 103.70004 836.800000
6199 17071 17080 1 109.50000 418.400000
17070 17071 17080 1 103.70004 1034.033760
17070 17072 17073 1 119.8800511 375.723200
17070 17072 17074 1 120.0200517 532.790560
17073 17072 17074 1 119.8800511 375.723200
17072 17074 17075 1 119.8800511 375.723200
17072 17074 17076 1 120.0200517 532.790560
17075 17074 17076 1 119.8800511 375.723200
17074 17076 17077 1 119.8800511 375.723200
17074 17076 17078 1 120.0200517 532.790560
17077 17076 17078 1 119.8800511 375.723200
17069 17078 17076 1 120.0200517 532.790560
17069 17078 17079 1 119.8800511 375.723200
17076 17078 17079 1 119.8800511 375.723200
17071 17080 17081 1 115.00000 209.200000
17082 17083 17084 1 119.8800511 375.723200
17082 17083 17092 1 119.8800511 375.723200
17084 17083 17092 1 120.0200517 532.790560
17083 17084 17085 1 121.3800518 83.010560
17083 17084 17086 1 120.0200517 532.790560
17085 17084 17086 1 121.3800518 83.010560
46 17085 5848 1 109.50000 418.400000
46 17085 17084 1 103.70004 836.800000
46 17085 17094 1 109.50000 418.400000
5848 17085 17084 1 103.70004 836.800000
5848 17085 17094 1 109.50000 418.400000
17084 17085 17094 1 103.70004 1034.033760
17084 17086 17087 1 119.8800511 375.723200
17084 17086 17088 1 120.0200517 532.790560
17087 17086 17088 1 119.8800511 375.723200
17086 17088 17089 1 119.8800511 375.723200
17086 17088 17090 1 120.0200517 532.790560
17089 17088 17090 1 119.8800511 375.723200
17088 17090 17091 1 119.8800511 375.723200
17088 17090 17092 1 120.0200517 532.790560
17091 17090 17092 1 119.8800511 375.723200
17083 17092 17090 1 120.0200517 532.790560
17083 17092 17093 1 119.8800511 375.723200
17090 17092 17093 1 119.8800511 375.723200
17085 17094 17095 1 115.00000 209.200000
17096 17097 17098 1 119.8800511 375.723200
17096 17097 17106 1 119.8800511 375.723200
17098 17097 17106 1 120.0200517 532.790560
17097 17098 17099 1 121.3800518 83.010560
17097 17098 17100 1 120.0200517 532.790560
17099 17098 17100 1 121.3800518 83.010560
21 17099 8550 1 109.50000 418.400000
21 17099 17098 1 103.70004 836.800000
21 17099 17108 1 109.50000 418.400000
8550 17099 17098 1 103.70004 836.800000
8550 17099 17108 1 109.50000 418.400000
17098 17099 17108 1 103.70004 1034.033760
17098 17100 17101 1 119.8800511 375.723200
17098 17100 17102 1 120.0200517 532.790560
17101 17100 17102 1 119.8800511 375.723200
17100 17102 17103 1 119.8800511 375.723200
17100 17102 17104 1 120.0200517 532.790560
17103 17102 17104 1 119.8800511 375.723200
17102 17104 17105 1 119.8800511 375.723200
17102 17104 17106 1 120.0200517 532.790560
17105 17104 17106 1 119.8800511 375.723200
17097 17106 17104 1 120.0200517 532.790560
17097 17106 17107 1 119.8800511 375.723200
17104 17106 17107 1 119.8800511 375.723200
17099 17108 17109 1 115.00000 209.200000
17110 17111 17112 1 119.8800511 375.723200
17110 17111 17120 1 119.8800511 375.723200
17112 17111 17120 1 120.0200517 532.790560
17111 17112 17113 1 121.3800518 83.010560
17111 17112 17114 1 120.0200517 532.790560
17113 17112 17114 1 121.3800518 83.010560
2733 17113 8562 1 109.50000 418.400000
2733 17113 17112 1 103.70004 836.800000
2733 17113 17122 1 109.50000 418.400000
8562 17113 17112 1 103.70004 836.800000
8562 17113 17122 1 109.50000 418.400000
17112 17113 17122 1 103.70004 1034.033760
17112 17114 17115 1 119.8800511 375.723200
17112 17114 17116 1 120.0200517 532.790560
17115 17114 17116 1 119.8800511 375.723200
17114 17116 17117 1 119.8800511 375.723200
17114 17116 17118 1 120.0200517 532.790560
17117 17116 17118 1 119.8800511 375.723200
17116 17118 17119 1 119.8800511 375.723200
17116 17118 17120 1 120.0200517 532.790560
17119 17118 17120 1 119.8800511 375.723200
17111 17120 17118 1 120.0200517 532.790560
17111 17120 17121 1 119.8800511 375.723200
17118 17120 17121 1 119.8800511 375.723200
17113 17122 17123 1 115.00000 209.200000
17124 17125 17126 1 119.8800511 375.723200
17124 17125 17134 1 119.8800511 375.723200
17126 17125 17134 1 120.0200517 532.790560
17125 17126 17127 1 121.3800518 83.010560
17125 17126 17128 1 120.0200517 532.790560
17127 17126 17128 1 121.3800518 83.010560
8617 17127 8618 1 109.50000 418.400000
8617 17127 17126 1 103.70004 836.800000
8617 17127 17136 1 109.50000 418.400000
8618 17127 17126 1 103.70004 836.800000
8618 17127 17136 1 109.50000 418.400000
17126 17127 17136 1 103.70004 1034.033760
17126 17128 17129 1 119.8800511 375.723200
17126 17128 17130 1 120.0200517 532.790560
17129 17128 17130 1 119.8800511 375.723200
17128 17130 17131 1 119.8800511 375.723200
17128 17130 17132 1 120.0200517 532.790560
17131 17130 17132 1 119.8800511 375.723200
17130 17132 17133 1 119.8800511 375.723200
17130 17132 17134 1 120.0200517 532.790560
17133 17132 17134 1 119.8800511 375.723200
17125 17134 17132 1 120.0200517 532.790560
17125 17134 17135 1 119.8800511 375.723200
17132 17134 17135 1 119.8800511 375.723200
17127 17136 17137 1 115.00000 209.200000
17138 17139 17140 1 119.8800511 375.723200
17138 17139 17148 1 119.8800511 375.723200
17140 17139 17148 1 120.0200517 532.790560
17139 17140 17141 1 121.3800518 83.010560
17139 17140 17142 1 120.0200517 532.790560
17141 17140 17142 1 121.3800518 83.010560
4281 17141 8621 1 109.50000 418.400000
4281 17141 17140 1 103.70004 836.800000
4281 17141 17150 1 109.50000 418.400000
8621 17141 17140 1 103.70004 836.800000
8621 17141 17150 1 109.50000 418.400000
17140 17141 17150 1 103.70004 1034.033760
17140 17142 17143 1 119.8800511 375.723200
17140 17142 17144 1 120.0200517 532.790560
17143 17142 17144 1 119.8800511 375.723200
17142 17144 17145 1 119.8800511 375.723200
17142 17144 17146 1 120.0200517 532.790560
17145 17144 17146 1 119.8800511 375.723200
17144 17146 17147 1 119.8800511 375.723200
17144 17146 17148 1 120.0200517 532.790560
17147 17146 17148 1 119.8800511 375.723200
17139 17148 17146 1 120.0200517 532.790560
17139 17148 17149 1 119.8800511 375.723200
17146 17148 17149 1 119.8800511 375.723200
17141 17150 17151 1 115.00000 209.200000
17152 17153 17154 1 119.8800511 375.723200
17152 17153 17162 1 119.8800511 375.723200
17154 17153 17162 1 120.0200517 532.790560
17153 17154 17155 1 121.3800518 83.010560
17153 17154 17156 1 120.0200517 532.790560
17155 17154 17156 1 121.3800518 83.010560
1772 17155 7302 1 109.50000 418.400000
1772 17155 17154 1 103.70004 836.800000
1772 17155 17164 1 109.50000 418.400000
7302 17155 17154 1 103.70004 836.800000
7302 17155 17164 1 109.50000 418.400000
17154 17155 17164 1 103.70004 1034.033760
17154 17156 17157 1 119.8800511 375.723200
17154 17156 17158 1 120.0200517 532.790560
17157 17156 17158 1 119.8800511 375.723200
17156 17158 17159 1 119.8800511 375.723200
17156 17158 17160 1 120.0200517 532.790560
17159 17158 17160 1 119.8800511 375.723200
17158 17160 17161 1 119.8800511 375.723200
17158 17160 17162 1 120.0200517 532.790560
17161 17160 17162 1 119.8800511 375.723200
17153 17162 17160 1 120.0200517 532.790560
17153 17162 17163 1 119.8800511 375.723200
17160 17162 17163 1 119.8800511 375.723200
17155 17164 17165 1 115.00000 209.200000
17166 17167 17168 1 119.8800511 375.723200
17166 17167 17176 1 119.8800511 375.723200
17168 17167 17176 1 120.0200517 532.790560
17167 17168 17169 1 121.3800518 83.010560
17167 17168 17170 1 120.0200517 532.790560
17169 17168 17170 1 121.3800518 83.010560
1686 17169 8093 1 109.50000 418.400000
1686 17169 17168 1 103.70004 836.800000
1686 17169 17178 1 109.50000 418.400000
8093 17169 17168 1 103.70004 836.800000
8093 17169 17178 1 109.50000 418.400000
17168 17169 17178 1 103.70004 1034.033760
17168 17170 17171 1 119.8800511 375.723200
17168 17170 17172 1 120.0200517 532.790560
17171 17170 17172 1 119.8800511 375.723200
17170 17172 17173 1 119.8800511 375.723200
17170 17172 17174 1 120.0200517 532.790560
17173 17172 17174 1 119.8800511 375.723200
17172 17174 17175 1 119.8800511 375.723200
17172 17174 17176 1 120.0200517 532.790560
17175 17174 17176 1 119.8800511 375.723200
17167 17176 17174 1 120.0200517 532.790560
17167 17176 17177 1 119.8800511 375.723200
17174 17176 17177 1 119.8800511 375.723200
17169 17178 17179 1 115.00000 209.200000
17180 17181 17182 1 119.8800511 375.723200
17180 17181 17190 1 119.8800511 375.723200
17182 17181 17190 1 120.0200517 532.790560
17181 17182 17183 1 121.3800518 83.010560
17181 17182 17184 1 120.0200517 532.790560
17183 17182 17184 1 121.3800518 83.010560
5182 17183 8821 1 109.50000 418.400000
5182 17183 17182 1 103.70004 836.800000
5182 17183 17192 1 109.50000 418.400000
8821 17183 17182 1 103.70004 836.800000
8821 17183 17192 1 109.50000 418.400000
17182 17183 17192 1 103.70004 1034.033760
17182 17184 17185 1 119.8800511 375.723200
17182 17184 17186 1 120.0200517 532.790560
17185 17184 17186 1 119.8800511 375.723200
17184 17186 17187 1 119.8800511 375.723200
17184 17186 17188 1 120.0200517 532.790560
17187 17186 17188 1 119.8800511 375.723200
17186 17188 17189 1 119.8800511 375.723200
17186 17188 17190 1 120.0200517 532.790560
17189 17188 17190 1 119.8800511 375.723200
17181 17190 17188 1 120.0200517 532.790560
17181 17190 17191 1 119.8800511 375.723200
17188 17190 17191 1 119.8800511 375.723200
17183 17192 17193 1 115.00000 209.200000
17194 17195 17196 1 119.8800511 375.723200
17194 17195 17204 1 119.8800511 375.723200
17196 17195 17204 1 120.0200517 532.790560
17195 17196 17197 1 121.3800518 83.010560
17195 17196 17198 1 120.0200517 532.790560
17197 17196 17198 1 121.3800518 83.010560
7286 17197 8822 1 109.50000 418.400000
7286 17197 17196 1 103.70004 836.800000
7286 17197 17206 1 109.50000 418.400000
8822 17197 17196 1 103.70004 836.800000
8822 17197 17206 1 109.50000 418.400000
17196 17197 17206 1 103.70004 1034.033760
17196 17198 17199 1 119.8800511 375.723200
17196 17198 17200 1 120.0200517 532.790560
17199 17198 17200 1 119.8800511 375.723200
17198 17200 17201 1 119.8800511 375.723200
17198 17200 17202 1 120.0200517 532.790560
17201 17200 17202 1 119.8800511 375.723200
17200 17202 17203 1 119.8800511 375.723200
17200 17202 17204 1 120.0200517 532.790560
17203 17202 17204 1 119.8800511 375.723200
17195 17204 17202 1 120.0200517 532.790560
17195 17204 17205 1 119.8800511 375.723200
17202 17204 17205 1 119.8800511 375.723200
17197 17206 17207 1 115.00000 209.200000
17208 17209 17210 1 119.8800511 375.723200
17208 17209 17218 1 119.8800511 375.723200
17210 17209 17218 1 120.0200517 532.790560
17209 17210 17211 1 121.3800518 83.010560
17209 17210 17212 1 120.0200517 532.790560
17211 17210 17212 1 121.3800518 83.010560
2605 17211 4304 1 109.50000 418.400000
2605 17211 17210 1 103.70004 836.800000
2605 17211 17220 1 109.50000 418.400000
4304 17211 17210 1 103.70004 836.800000
4304 17211 17220 1 109.50000 418.400000
17210 17211 17220 1 103.70004 1034.033760
17210 17212 17213 1 119.8800511 375.723200
17210 17212 17214 1 120.0200517 532.790560
17213 17212 17214 1 119.8800511 375.723200
17212 17214 17215 1 119.8800511 375.723200
17212 17214 17216 1 120.0200517 532.790560
17215 17214 17216 1 119.8800511 375.723200
17214 17216 17217 1 119.8800511 375.723200
17214 17216 17218 1 120.0200517 532.790560
17217 17216 17218 1 119.8800511 375.723200
17209 17218 17216 1 120.0200517 532.790560
17209 17218 17219 1 119.8800511 375.723200
17216 17218 17219 1 119.8800511 375.723200
17211 17220 17221 1 115.00000 209.200000
17222 17223 17224 1 119.8800511 375.723200
17222 17223 17232 1 119.8800511 375.723200
17224 17223 17232 1 120.0200517 532.790560
17223 17224 17225 1 121.3800518 83.010560
17223 17224 17226 1 120.0200517 532.790560
17225 17224 17226 1 121.3800518 83.010560
8045 17225 8851 1 109.50000 418.400000
8045 17225 17224 1 103.70004 836.800000
8045 17225 17234 1 109.50000 418.400000
8851 17225 17224 1 103.70004 836.800000
8851 17225 17234 1 109.50000 418.400000
17224 17225 17234 1 103.70004 1034.033760
17224 17226 17227 1 119.8800511 375.723200
17224 17226 17228 1 120.0200517 532.790560
17227 17226 17228 1 119.8800511 375.723200
17226 17228 17229 1 119.8800511 375.723200
17226 17228 17230 1 120.0200517 532.790560
17229 17228 17230 1 119.8800511 375.723200
17228 17230 17231 1 119.8800511 375.723200
17228 17230 17232 1 120.0200517 532.790560
17231 17230 17232 1 119.8800511 375.723200
17223 17232 17230 1 120.0200517 532.790560
17223 17232 17233 1 119.8800511 375.723200
17230 17232 17233 1 119.8800511 375.723200
17225 17234 17235 1 115.00000 209.200000
17236 17237 17238 1 119.8800511 375.723200
17236 17237 17246 1 119.8800511 375.723200
17238 17237 17246 1 120.0200517 532.790560
17237 17238 17239 1 121.3800518 83.010560
17237 17238 17240 1 120.0200517 532.790560
17239 17238 17240 1 121.3800518 83.010560
8866 17239 8867 1 109.50000 418.400000
8866 17239 17238 1 103.70004 836.800000
8866 17239 17248 1 109.50000 418.400000
8867 17239 17238 1 103.70004 836.800000
8867 17239 17248 1 109.50000 418.400000
17238 17239 17248 1 103.70004 1034.033760
17238 17240 17241 1 119.8800511 375.723200
17238 17240 17242 1 120.0200517 532.790560
17241 17240 17242 1 119.8800511 375.723200
17240 17242 17243 1 119.8800511 375.723200
17240 17242 17244 1 120.0200517 532.790560
17243 17242 17244 1 119.8800511 375.723200
17242 17244 17245 1 119.8800511 375.723200
17242 17244 17246 1 120.0200517 532.790560
17245 17244 17246 1 119.8800511 375.723200
17237 17246 17244 1 120.0200517 532.790560
17237 17246 17247 1 119.8800511 375.723200
17244 17246 17247 1 119.8800511 375.723200
17239 17248 17249 1 115.00000 209.200000
17250 17251 17252 1 119.8800511 375.723200
17250 17251 17260 1 119.8800511 375.723200
17252 17251 17260 1 120.0200517 532.790560
17251 17252 17253 1 121.3800518 83.010560
17251 17252 17254 1 120.0200517 532.790560
17253 17252 17254 1 121.3800518 83.010560
2246 17253 7770 1 109.50000 418.400000
2246 17253 17252 1 103.70004 836.800000
2246 17253 17262 1 109.50000 418.400000
7770 17253 17252 1 103.70004 836.800000
7770 17253 17262 1 109.50000 418.400000
17252 17253 17262 1 103.70004 1034.033760
17252 17254 17255 1 119.8800511 375.723200
17252 17254 17256 1 120.0200517 532.790560
17255 17254 17256 1 119.8800511 375.723200
17254 17256 17257 1 119.8800511 375.723200
17254 17256 17258 1 120.0200517 532.790560
17257 17256 17258 1 119.8800511 375.723200
17256 17258 17259 1 119.8800511 375.723200
17256 17258 17260 1 120.0200517 532.790560
17259 17258 17260 1 119.8800511 375.723200
17251 17260 17258 1 120.0200517 532.790560
17251 17260 17261 1 119.8800511 375.723200
17258 17260 17261 1 119.8800511 375.723200
17253 17262 17263 1 115.00000 209.200000
17264 17265 17266 1 119.8800511 375.723200
17264 17265 17274 1 119.8800511 375.723200
17266 17265 17274 1 120.0200517 532.790560
17265 17266 17267 1 121.3800518 83.010560
17265 17266 17268 1 120.0200517 532.790560
17267 17266 17268 1 121.3800518 83.010560
61 17267 8916 1 109.50000 418.400000
61 17267 17266 1 103.70004 836.800000
61 17267 17276 1 109.50000 418.400000
8916 17267 17266 1 103.70004 836.800000
8916 17267 17276 1 109.50000 418.400000
17266 17267 17276 1 103.70004 1034.033760
17266 17268 17269 1 119.8800511 375.723200
17266 17268 17270 1 120.0200517 532.790560
17269 17268 17270 1 119.8800511 375.723200
17268 17270 17271 1 119.8800511 375.723200
17268 17270 17272 1 120.0200517 532.790560
17271 17270 17272 1 119.8800511 375.723200
17270 17272 17273 1 119.8800511 375.723200
17270 17272 17274 1 120.0200517 532.790560
17273 17272 17274 1 119.8800511 375.723200
17265 17274 17272 1 120.0200517 532.790560
17265 17274 17275 1 119.8800511 375.723200
17272 17274 17275 1 119.8800511 375.723200
17267 17276 17277 1 115.00000 209.200000
17278 17279 17280 1 119.8800511 375.723200
17278 17279 17288 1 119.8800511 375.723200
17280 17279 17288 1 120.0200517 532.790560
17279 17280 17281 1 121.3800518 83.010560
17279 17280 17282 1 120.0200517 532.790560
17281 17280 17282 1 121.3800518 83.010560
5054 17281 8928 1 109.50000 418.400000
5054 17281 17280 1 103.70004 836.800000
5054 17281 17290 1 109.50000 418.400000
8928 17281 17280 1 103.70004 836.800000
8928 17281 17290 1 109.50000 418.400000
17280 17281 17290 1 103.70004 1034.033760
17280 17282 17283 1 119.8800511 375.723200
17280 17282 17284 1 120.0200517 532.790560
17283 17282 17284 1 119.8800511 375.723200
17282 17284 17285 1 119.8800511 375.723200
17282 17284 17286 1 120.0200517 532.790560
17285 17284 17286 1 119.8800511 375.723200
17284 17286 17287 1 119.8800511 375.723200
17284 17286 17288 1 120.0200517 532.790560
17287 17286 17288 1 119.8800511 375.723200
17279 17288 17286 1 120.0200517 532.790560
17279 17288 17289 1 119.8800511 375.723200
17286 17288 17289 1 119.8800511 375.723200
17281 17290 17291 1 115.00000 209.200000
17292 17293 17294 1 119.8800511 375.723200
17292 17293 17302 1 119.8800511 375.723200
17294 17293 17302 1 120.0200517 532.790560
17293 17294 17295 1 121.3800518 83.010560
17293 17294 17296 1 120.0200517 532.790560
17295 17294 17296 1 121.3800518 83.010560
8962 17295 9672 1 109.50000 418.400000
8962 17295 17294 1 103.70004 836.800000
8962 17295 17304 1 109.50000 418.400000
9672 17295 17294 1 103.70004 836.800000
9672 17295 17304 1 109.50000 418.400000
17294 17295 17304 1 103.70004 1034.033760
17294 17296 17297 1 119.8800511 375.723200
17294 17296 17298 1 120.0200517 532.790560
17297 17296 17298 1 119.8800511 375.723200
17296 17298 17299 1 119.8800511 375.723200
17296 17298 17300 1 120.0200517 532.790560
17299 17298 17300 1 119.8800511 375.723200
17298 17300 17301 1 119.8800511 375.723200
17298 17300 17302 1 120.0200517 532.790560
17301 17300 17302 1 119.8800511 375.723200
17293 17302 17300 1 120.0200517 532.790560
17293 17302 17303 1 119.8800511 375.723200
17300 17302 17303 1 119.8800511 375.723200
17295 17304 17305 1 115.00000 209.200000
17306 17307 17308 1 119.8800511 375.723200
17306 17307 17316 1 119.8800511 375.723200
17308 17307 17316 1 120.0200517 532.790560
17307 17308 17309 1 121.3800518 83.010560
17307 17308 17310 1 120.0200517 532.790560
17309 17308 17310 1 121.3800518 83.010560
4172 17309 8974 1 109.50000 418.400000
4172 17309 17308 1 103.70004 836.800000
4172 17309 17318 1 109.50000 418.400000
8974 17309 17308 1 103.70004 836.800000
8974 17309 17318 1 109.50000 418.400000
17308 17309 17318 1 103.70004 1034.033760
17308 17310 17311 1 119.8800511 375.723200
17308 17310 17312 1 120.0200517 532.790560
17311 17310 17312 1 119.8800511 375.723200
17310 17312 17313 1 119.8800511 375.723200
17310 17312 17314 1 120.0200517 532.790560
17313 17312 17314 1 119.8800511 375.723200
17312 17314 17315 1 119.8800511 375.723200
17312 17314 17316 1 120.0200517 532.790560
17315 17314 17316 1 119.8800511 375.723200
17307 17316 17314 1 120.0200517 532.790560
17307 17316 17317 1 119.8800511 375.723200
17314 17316 17317 1 119.8800511 375.723200
17309 17318 17319 1 115.00000 209.200000
17320 17321 17322 1 119.8800511 375.723200
17320 17321 17330 1 119.8800511 375.723200
17322 17321 17330 1 120.0200517 532.790560
17321 17322 17323 1 121.3800518 83.010560
17321 17322 17324 1 120.0200517 532.790560
17323 17322 17324 1 121.3800518 83.010560
8289 17323 9035 1 109.50000 418.400000
8289 17323 17322 1 103.70004 836.800000
8289 17323 17332 1 109.50000 418.400000
9035 17323 17322 1 103.70004 836.800000
9035 17323 17332 1 109.50000 418.400000
17322 17323 17332 1 103.70004 1034.033760
17322 17324 17325 1 119.8800511 375.723200
17322 17324 17326 1 120.0200517 532.790560
17325 17324 17326 1 119.8800511 375.723200
17324 17326 17327 1 119.8800511 375.723200
17324 17326 17328 1 120.0200517 532.790560
17327 17326 17328 1 119.8800511 375.723200
17326 17328 17329 1 119.8800511 375.723200
17326 17328 17330 1 120.0200517 532.790560
17329 17328 17330 1 119.8800511 375.723200
17321 17330 17328 1 120.0200517 532.790560
17321 17330 17331 1 119.8800511 375.723200
17328 17330 17331 1 119.8800511 375.723200
17323 17332 17333 1 115.00000 209.200000
17334 17335 17336 1 119.8800511 375.723200
17334 17335 17344 1 119.8800511 375.723200
17336 17335 17344 1 120.0200517 532.790560
17335 17336 17337 1 121.3800518 83.010560
17335 17336 17338 1 120.0200517 532.790560
17337 17336 17338 1 121.3800518 83.010560
8173 17337 9098 1 109.50000 418.400000
8173 17337 17336 1 103.70004 836.800000
8173 17337 17346 1 109.50000 418.400000
9098 17337 17336 1 103.70004 836.800000
9098 17337 17346 1 109.50000 418.400000
17336 17337 17346 1 103.70004 1034.033760
17336 17338 17339 1 119.8800511 375.723200
17336 17338 17340 1 120.0200517 532.790560
17339 17338 17340 1 119.8800511 375.723200
17338 17340 17341 1 119.8800511 375.723200
17338 17340 17342 1 120.0200517 532.790560
17341 17340 17342 1 119.8800511 375.723200
17340 17342 17343 1 119.8800511 375.723200
17340 17342 17344 1 120.0200517 532.790560
17343 17342 17344 1 119.8800511 375.723200
17335 17344 17342 1 120.0200517 532.790560
17335 17344 17345 1 119.8800511 375.723200
17342 17344 17345 1 119.8800511 375.723200
17337 17346 17347 1 115.00000 209.200000
17348 17349 17350 1 119.8800511 375.723200
17348 17349 17358 1 119.8800511 375.723200
17350 17349 17358 1 120.0200517 532.790560
17349 17350 17351 1 121.3800518 83.010560
17349 17350 17352 1 120.0200517 532.790560
17351 17350 17352 1 121.3800518 83.010560
3540 17351 9193 1 109.50000 418.400000
3540 17351 17350 1 103.70004 836.800000
3540 17351 17360 1 109.50000 418.400000
9193 17351 17350 1 103.70004 836.800000
9193 17351 17360 1 109.50000 418.400000
17350 17351 17360 1 103.70004 1034.033760
17350 17352 17353 1 119.8800511 375.723200
17350 17352 17354 1 120.0200517 532.790560
17353 17352 17354 1 119.8800511 375.723200
17352 17354 17355 1 119.8800511 375.723200
17352 17354 17356 1 120.0200517 532.790560
17355 17354 17356 1 119.8800511 375.723200
17354 17356 17357 1 119.8800511 375.723200
17354 17356 17358 1 120.0200517 532.790560
17357 17356 17358 1 119.8800511 375.723200
17349 17358 17356 1 120.0200517 532.790560
17349 17358 17359 1 119.8800511 375.723200
17356 17358 17359 1 119.8800511 375.723200
17351 17360 17361 1 115.00000 209.200000
17362 17363 17364 1 119.8800511 375.723200
17362 17363 17372 1 119.8800511 375.723200
17364 17363 17372 1 120.0200517 532.790560
17363 17364 17365 1 121.3800518 83.010560
17363 17364 17366 1 120.0200517 532.790560
17365 17364 17366 1 121.3800518 83.010560
598 17365 9194 1 109.50000 418.400000
598 17365 17364 1 103.70004 836.800000
598 17365 17374 1 109.50000 418.400000
9194 17365 17364 1 103.70004 836.800000
9194 17365 17374 1 109.50000 418.400000
17364 17365 17374 1 103.70004 1034.033760
17364 17366 17367 1 119.8800511 375.723200
17364 17366 17368 1 120.0200517 532.790560
17367 17366 17368 1 119.8800511 375.723200
17366 17368 17369 1 119.8800511 375.723200
17366 17368 17370 1 120.0200517 532.790560
17369 17368 17370 1 119.8800511 375.723200
17368 17370 17371 1 119.8800511 375.723200
17368 17370 17372 1 120.0200517 532.790560
17371 17370 17372 1 119.8800511 375.723200
17363 17372 17370 1 120.0200517 532.790560
17363 17372 17373 1 119.8800511 375.723200
17370 17372 17373 1 119.8800511 375.723200
17365 17374 17375 1 115.00000 209.200000
17376 17377 17378 1 119.8800511 375.723200
17376 17377 17386 1 119.8800511 375.723200
17378 17377 17386 1 120.0200517 532.790560
17377 17378 17379 1 121.3800518 83.010560
17377 17378 17380 1 120.0200517 532.790560
17379 17378 17380 1 121.3800518 83.010560
1034 17379 4378 1 109.50000 418.400000
1034 17379 17378 1 103.70004 836.800000
1034 17379 17388 1 109.50000 418.400000
4378 17379 17378 1 103.70004 836.800000
4378 17379 17388 1 109.50000 418.400000
17378 17379 17388 1 103.70004 1034.033760
17378 17380 17381 1 119.8800511 375.723200
17378 17380 17382 1 120.0200517 532.790560
17381 17380 17382 1 119.8800511 375.723200
17380 17382 17383 1 119.8800511 375.723200
17380 17382 17384 1 120.0200517 532.790560
17383 17382 17384 1 119.8800511 375.723200
17382 17384 17385 1 119.8800511 375.723200
17382 17384 17386 1 120.0200517 532.790560
17385 17384 17386 1 119.8800511 375.723200
17377 17386 17384 1 120.0200517 532.790560
17377 17386 17387 1 119.8800511 375.723200
17384 17386 17387 1 119.8800511 375.723200
17379 17388 17389 1 115.00000 209.200000
17390 17391 17392 1 119.8800511 375.723200
17390 17391 17400 1 119.8800511 375.723200
17392 17391 17400 1 120.0200517 532.790560
17391 17392 17393 1 121.3800518 83.010560
17391 17392 17394 1 120.0200517 532.790560
17393 17392 17394 1 121.3800518 83.010560
306 17393 8635 1 109.50000 418.400000
306 17393 17392 1 103.70004 836.800000
306 17393 17402 1 109.50000 418.400000
8635 17393 17392 1 103.70004 836.800000
8635 17393 17402 1 109.50000 418.400000
17392 17393 17402 1 103.70004 1034.033760
17392 17394 17395 1 119.8800511 375.723200
17392 17394 17396 1 120.0200517 532.790560
17395 17394 17396 1 119.8800511 375.723200
17394 17396 17397 1 119.8800511 375.723200
17394 17396 17398 1 120.0200517 532.790560
17397 17396 17398 1 119.8800511 375.723200
17396 17398 17399 1 119.8800511 375.723200
17396 17398 17400 1 120.0200517 532.790560
17399 17398 17400 1 119.8800511 375.723200
17391 17400 17398 1 120.0200517 532.790560
17391 17400 17401 1 119.8800511 375.723200
17398 17400 17401 1 119.8800511 375.723200
17393 17402 17403 1 115.00000 209.200000
17404 17405 17406 1 119.8800511 375.723200
17404 17405 17414 1 119.8800511 375.723200
17406 17405 17414 1 120.0200517 532.790560
17405 17406 17407 1 121.3800518 83.010560
17405 17406 17408 1 120.0200517 532.790560
17407 17406 17408 1 121.3800518 83.010560
9263 17407 9264 1 109.50000 418.400000
9263 17407 17406 1 103.70004 836.800000
9263 17407 17416 1 109.50000 418.400000
9264 17407 17406 1 103.70004 836.800000
9264 17407 17416 1 109.50000 418.400000
17406 17407 17416 1 103.70004 1034.033760
17406 17408 17409 1 119.8800511 375.723200
17406 17408 17410 1 120.0200517 532.790560
17409 17408 17410 1 119.8800511 375.723200
17408 17410 17411 1 119.8800511 375.723200
17408 17410 17412 1 120.0200517 532.790560
17411 17410 17412 1 119.8800511 375.723200
17410 17412 17413 1 119.8800511 375.723200
17410 17412 17414 1 120.0200517 532.790560
17413 17412 17414 1 119.8800511 375.723200
17405 17414 17412 1 120.0200517 532.790560
17405 17414 17415 1 119.8800511 375.723200
17412 17414 17415 1 119.8800511 375.723200
17407 17416 17417 1 115.00000 209.200000
17418 17419 17420 1 119.8800511 375.723200
17418 17419 17428 1 119.8800511 375.723200
17420 17419 17428 1 120.0200517 532.790560
17419 17420 17421 1 121.3800518 83.010560
17419 17420 17422 1 120.0200517 532.790560
17421 17420 17422 1 121.3800518 83.010560
5069 17421 7625 1 109.50000 418.400000
5069 17421 17420 1 103.70004 836.800000
5069 17421 17430 1 109.50000 418.400000
7625 17421 17420 1 103.70004 836.800000
7625 17421 17430 1 109.50000 418.400000
17420 17421 17430 1 103.70004 1034.033760
17420 17422 17423 1 119.8800511 375.723200
17420 17422 17424 1 120.0200517 532.790560
17423 17422 17424 1 119.8800511 375.723200
17422 17424 17425 1 119.8800511 375.723200
17422 17424 17426 1 120.0200517 532.790560
17425 17424 17426 1 119.8800511 375.723200
17424 17426 17427 1 119.8800511 375.723200
17424 17426 17428 1 120.0200517 532.790560
17427 17426 17428 1 119.8800511 375.723200
17419 17428 17426 1 120.0200517 532.790560
17419 17428 17429 1 119.8800511 375.723200
17426 17428 17429 1 119.8800511 375.723200
17421 17430 17431 1 115.00000 209.200000
17432 17433 17434 1 119.8800511 375.723200
17432 17433 17442 1 119.8800511 375.723200
17434 17433 17442 1 120.0200517 532.790560
17433 17434 17435 1 121.3800518 83.010560
17433 17434 17436 1 120.0200517 532.790560
17435 17434 17436 1 121.3800518 83.010560
1207 17435 3332 1 109.50000 418.400000
1207 17435 17434 1 103.70004 836.800000
1207 17435 17444 1 109.50000 418.400000
3332 17435 17434 1 103.70004 836.800000
3332 17435 17444 1 109.50000 418.400000
17434 17435 17444 1 103.70004 1034.033760
17434 17436 17437 1 119.8800511 375.723200
17434 17436 17438 1 120.0200517 532.790560
17437 17436 17438 1 119.8800511 375.723200
17436 17438 17439 1 119.8800511 375.723200
17436 17438 17440 1 120.0200517 532.790560
17439 17438 17440 1 119.8800511 375.723200
17438 17440 17441 1 119.8800511 375.723200
17438 17440 17442 1 120.0200517 532.790560
17441 17440 17442 1 119.8800511 375.723200
17433 17442 17440 1 120.0200517 532.790560
17433 17442 17443 1 119.8800511 375.723200
17440 17442 17443 1 119.8800511 375.723200
17435 17444 17445 1 115.00000 209.200000
17446 17447 17448 1 119.8800511 375.723200
17446 17447 17456 1 119.8800511 375.723200
17448 17447 17456 1 120.0200517 532.790560
17447 17448 17449 1 121.3800518 83.010560
17447 17448 17450 1 120.0200517 532.790560
17449 17448 17450 1 121.3800518 83.010560
2298 17449 9090 1 109.50000 418.400000
2298 17449 17448 1 103.70004 836.800000
2298 17449 17458 1 109.50000 418.400000
9090 17449 17448 1 103.70004 836.800000
9090 17449 17458 1 109.50000 418.400000
17448 17449 17458 1 103.70004 1034.033760
17448 17450 17451 1 119.8800511 375.723200
17448 17450 17452 1 120.0200517 532.790560
17451 17450 17452 1 119.8800511 375.723200
17450 17452 17453 1 119.8800511 375.723200
17450 17452 17454 1 120.0200517 532.790560
17453 17452 17454 1 119.8800511 375.723200
17452 17454 17455 1 119.8800511 375.723200
17452 17454 17456 1 120.0200517 532.790560
17455 17454 17456 1 119.8800511 375.723200
17447 17456 17454 1 120.0200517 532.790560
17447 17456 17457 1 119.8800511 375.723200
17454 17456 17457 1 119.8800511 375.723200
17449 17458 17459 1 115.00000 209.200000
17460 17461 17462 1 119.8800511 375.723200
17460 17461 17470 1 119.8800511 375.723200
17462 17461 17470 1 120.0200517 532.790560
17461 17462 17463 1 121.3800518 83.010560
17461 17462 17464 1 120.0200517 532.790560
17463 17462 17464 1 121.3800518 83.010560
442 17463 5141 1 109.50000 418.400000
442 17463 17462 1 103.70004 836.800000
442 17463 17472 1 109.50000 418.400000
5141 17463 17462 1 103.70004 836.800000
5141 17463 17472 1 109.50000 418.400000
17462 17463 17472 1 103.70004 1034.033760
17462 17464 17465 1 119.8800511 375.723200
17462 17464 17466 1 120.0200517 532.790560
17465 17464 17466 1 119.8800511 375.723200
17464 17466 17467 1 119.8800511 375.723200
17464 17466 17468 1 120.0200517 532.790560
17467 17466 17468 1 119.8800511 375.723200
17466 17468 17469 1 119.8800511 375.723200
17466 17468 17470 1 120.0200517 532.790560
17469 17468 17470 1 119.8800511 375.723200
17461 17470 17468 1 120.0200517 532.790560
17461 17470 17471 1 119.8800511 375.723200
17468 17470 17471 1 119.8800511 375.723200
17463 17472 17473 1 115.00000 209.200000
17474 17475 17476 1 119.8800511 375.723200
17474 17475 17484 1 119.8800511 375.723200
17476 17475 17484 1 120.0200517 532.790560
17475 17476 17477 1 121.3800518 83.010560
17475 17476 17478 1 120.0200517 532.790560
17477 17476 17478 1 121.3800518 83.010560
4102 17477 9375 1 109.50000 418.400000
4102 17477 17476 1 103.70004 836.800000
4102 17477 17486 1 109.50000 418.400000
9375 17477 17476 1 103.70004 836.800000
9375 17477 17486 1 109.50000 418.400000
17476 17477 17486 1 103.70004 1034.033760
17476 17478 17479 1 119.8800511 375.723200
17476 17478 17480 1 120.0200517 532.790560
17479 17478 17480 1 119.8800511 375.723200
17478 17480 17481 1 119.8800511 375.723200
17478 17480 17482 1 120.0200517 532.790560
17481 17480 17482 1 119.8800511 375.723200
17480 17482 17483 1 119.8800511 375.723200
17480 17482 17484 1 120.0200517 532.790560
17483 17482 17484 1 119.8800511 375.723200
17475 17484 17482 1 120.0200517 532.790560
17475 17484 17485 1 119.8800511 375.723200
17482 17484 17485 1 119.8800511 375.723200
17477 17486 17487 1 115.00000 209.200000
17488 17489 17490 1 119.8800511 375.723200
17488 17489 17498 1 119.8800511 375.723200
17490 17489 17498 1 120.0200517 532.790560
17489 17490 17491 1 121.3800518 83.010560
17489 17490 17492 1 120.0200517 532.790560
17491 17490 17492 1 121.3800518 83.010560
6737 17491 9405 1 109.50000 418.400000
6737 17491 17490 1 103.70004 836.800000
6737 17491 17500 1 109.50000 418.400000
9405 17491 17490 1 103.70004 836.800000
9405 17491 17500 1 109.50000 418.400000
17490 17491 17500 1 103.70004 1034.033760
17490 17492 17493 1 119.8800511 375.723200
17490 17492 17494 1 120.0200517 532.790560
17493 17492 17494 1 119.8800511 375.723200
17492 17494 17495 1 119.8800511 375.723200
17492 17494 17496 1 120.0200517 532.790560
17495 17494 17496 1 119.8800511 375.723200
17494 17496 17497 1 119.8800511 375.723200
17494 17496 17498 1 120.0200517 532.790560
17497 17496 17498 1 119.8800511 375.723200
17489 17498 17496 1 120.0200517 532.790560
17489 17498 17499 1 119.8800511 375.723200
17496 17498 17499 1 119.8800511 375.723200
17491 17500 17501 1 115.00000 209.200000
17502 17503 17504 1 119.8800511 375.723200
17502 17503 17512 1 119.8800511 375.723200
17504 17503 17512 1 120.0200517 532.790560
17503 17504 17505 1 121.3800518 83.010560
17503 17504 17506 1 120.0200517 532.790560
17505 17504 17506 1 121.3800518 83.010560
5504 17505 9430 1 109.50000 418.400000
5504 17505 17504 1 103.70004 836.800000
5504 17505 17514 1 109.50000 418.400000
9430 17505 17504 1 103.70004 836.800000
9430 17505 17514 1 109.50000 418.400000
17504 17505 17514 1 103.70004 1034.033760
17504 17506 17507 1 119.8800511 375.723200
17504 17506 17508 1 120.0200517 532.790560
17507 17506 17508 1 119.8800511 375.723200
17506 17508 17509 1 119.8800511 375.723200
17506 17508 17510 1 120.0200517 532.790560
17509 17508 17510 1 119.8800511 375.723200
17508 17510 17511 1 119.8800511 375.723200
17508 17510 17512 1 120.0200517 532.790560
17511 17510 17512 1 119.8800511 375.723200
17503 17512 17510 1 120.0200517 532.790560
17503 17512 17513 1 119.8800511 375.723200
17510 17512 17513 1 119.8800511 375.723200
17505 17514 17515 1 115.00000 209.200000
17516 17517 17518 1 119.8800511 375.723200
17516 17517 17526 1 119.8800511 375.723200
17518 17517 17526 1 120.0200517 532.790560
17517 17518 17519 1 121.3800518 83.010560
17517 17518 17520 1 120.0200517 532.790560
17519 17518 17520 1 121.3800518 83.010560
4811 17519 9464 1 109.50000 418.400000
4811 17519 17518 1 103.70004 836.800000
4811 17519 17528 1 109.50000 418.400000
9464 17519 17518 1 103.70004 836.800000
9464 17519 17528 1 109.50000 418.400000
17518 17519 17528 1 103.70004 1034.033760
17518 17520 17521 1 119.8800511 375.723200
17518 17520 17522 1 120.0200517 532.790560
17521 17520 17522 1 119.8800511 375.723200
17520 17522 17523 1 119.8800511 375.723200
17520 17522 17524 1 120.0200517 532.790560
17523 17522 17524 1 119.8800511 375.723200
17522 17524 17525 1 119.8800511 375.723200
17522 17524 17526 1 120.0200517 532.790560
17525 17524 17526 1 119.8800511 375.723200
17517 17526 17524 1 120.0200517 532.790560
17517 17526 17527 1 119.8800511 375.723200
17524 17526 17527 1 119.8800511 375.723200
17519 17528 17529 1 115.00000 209.200000
17530 17531 17532 1 119.8800511 375.723200
17530 17531 17540 1 119.8800511 375.723200
17532 17531 17540 1 120.0200517 532.790560
17531 17532 17533 1 121.3800518 83.010560
17531 17532 17534 1 120.0200517 532.790560
17533 17532 17534 1 121.3800518 83.010560
5257 17533 5448 1 109.50000 418.400000
5257 17533 17532 1 103.70004 836.800000
5257 17533 17542 1 109.50000 418.400000
5448 17533 17532 1 103.70004 836.800000
5448 17533 17542 1 109.50000 418.400000
17532 17533 17542 1 103.70004 1034.033760
17532 17534 17535 1 119.8800511 375.723200
17532 17534 17536 1 120.0200517 532.790560
17535 17534 17536 1 119.8800511 375.723200
17534 17536 17537 1 119.8800511 375.723200
17534 17536 17538 1 120.0200517 532.790560
17537 17536 17538 1 119.8800511 375.723200
17536 17538 17539 1 119.8800511 375.723200
17536 17538 17540 1 120.0200517 532.790560
17539 17538 17540 1 119.8800511 375.723200
17531 17540 17538 1 120.0200517 532.790560
17531 17540 17541 1 119.8800511 375.723200
17538 17540 17541 1 119.8800511 375.723200
17533 17542 17543 1 115.00000 209.200000
17544 17545 17546 1 119.8800511 375.723200
17544 17545 17554 1 119.8800511 375.723200
17546 17545 17554 1 120.0200517 532.790560
17545 17546 17547 1 121.3800518 83.010560
17545 17546 17548 1 120.0200517 532.790560
17547 17546 17548 1 121.3800518 83.010560
2176 17547 9500 1 109.50000 418.400000
2176 17547 17546 1 103.70004 836.800000
2176 17547 17556 1 109.50000 418.400000
9500 17547 17546 1 103.70004 836.800000
9500 17547 17556 1 109.50000 418.400000
17546 17547 17556 1 103.70004 1034.033760
17546 17548 17549 1 119.8800511 375.723200
17546 17548 17550 1 120.0200517 532.790560
17549 17548 17550 1 119.8800511 375.723200
17548 17550 17551 1 119.8800511 375.723200
17548 17550 17552 1 120.0200517 532.790560
17551 17550 17552 1 119.8800511 375.723200
17550 17552 17553 1 119.8800511 375.723200
17550 17552 17554 1 120.0200517 532.790560
17553 17552 17554 1 119.8800511 375.723200
17545 17554 17552 1 120.0200517 532.790560
17545 17554 17555 1 119.8800511 375.723200
17552 17554 17555 1 119.8800511 375.723200
17547 17556 17557 1 115.00000 209.200000
17558 17559 17560 1 119.8800511 375.723200
17558 17559 17568 1 119.8800511 375.723200
17560 17559 17568 1 120.0200517 532.790560
17559 17560 17561 1 121.3800518 83.010560
17559 17560 17562 1 120.0200517 532.790560
17561 17560 17562 1 121.3800518 83.010560
9547 17561 9548 1 109.50000 418.400000
9547 17561 17560 1 103.70004 836.800000
9547 17561 17570 1 109.50000 418.400000
9548 17561 17560 1 103.70004 836.800000
9548 17561 17570 1 109.50000 418.400000
17560 17561 17570 1 103.70004 1034.033760
17560 17562 17563 1 119.8800511 375.723200
17560 17562 17564 1 120.0200517 532.790560
17563 17562 17564 1 119.8800511 375.723200
17562 17564 17565 1 119.8800511 375.723200
17562 17564 17566 1 120.0200517 532.790560
17565 17564 17566 1 119.8800511 375.723200
17564 17566 17567 1 119.8800511 375.723200
17564 17566 17568 1 120.0200517 532.790560
17567 17566 17568 1 119.8800511 375.723200
17559 17568 17566 1 120.0200517 532.790560
17559 17568 17569 1 119.8800511 375.723200
17566 17568 17569 1 119.8800511 375.723200
17561 17570 17571 1 115.00000 209.200000
17572 17573 17574 1 119.8800511 375.723200
17572 17573 17582 1 119.8800511 375.723200
17574 17573 17582 1 120.0200517 532.790560
17573 17574 17575 1 121.3800518 83.010560
17573 17574 17576 1 120.0200517 532.790560
17575 17574 17576 1 121.3800518 83.010560
2986 17575 4060 1 109.50000 418.400000
2986 17575 17574 1 103.70004 836.800000
2986 17575 17584 1 109.50000 418.400000
4060 17575 17574 1 103.70004 836.800000
4060 17575 17584 1 109.50000 418.400000
17574 17575 17584 1 103.70004 1034.033760
17574 17576 17577 1 119.8800511 375.723200
17574 17576 17578 1 120.0200517 532.790560
17577 17576 17578 1 119.8800511 375.723200
17576 17578 17579 1 119.8800511 375.723200
17576 17578 17580 1 120.0200517 532.790560
17579 17578 17580 1 119.8800511 375.723200
17578 17580 17581 1 119.8800511 375.723200
17578 17580 17582 1 120.0200517 532.790560
17581 17580 17582 1 119.8800511 375.723200
17573 17582 17580 1 120.0200517 532.790560
17573 17582 17583 1 119.8800511 375.723200
17580 17582 17583 1 119.8800511 375.723200
17575 17584 17585 1 115.00000 209.200000
17586 17587 17588 1 119.8800511 375.723200
17586 17587 17596 1 119.8800511 375.723200
17588 17587 17596 1 120.0200517 532.790560
17587 17588 17589 1 121.3800518 83.010560
17587 17588 17590 1 120.0200517 532.790560
17589 17588 17590 1 121.3800518 83.010560
5462 17589 9563 1 109.50000 418.400000
5462 17589 17588 1 103.70004 836.800000
5462 17589 17598 1 109.50000 418.400000
9563 17589 17588 1 103.70004 836.800000
9563 17589 17598 1 109.50000 418.400000
17588 17589 17598 1 103.70004 1034.033760
17588 17590 17591 1 119.8800511 375.723200
17588 17590 17592 1 120.0200517 532.790560
17591 17590 17592 1 119.8800511 375.723200
17590 17592 17593 1 119.8800511 375.723200
17590 17592 17594 1 120.0200517 532.790560
17593 17592 17594 1 119.8800511 375.723200
17592 17594 17595 1 119.8800511 375.723200
17592 17594 17596 1 120.0200517 532.790560
17595 17594 17596 1 119.8800511 375.723200
17587 17596 17594 1 120.0200517 532.790560
17587 17596 17597 1 119.8800511 375.723200
17594 17596 17597 1 119.8800511 375.723200
17589 17598 17599 1 115.00000 209.200000
17600 17601 17602 1 119.8800511 375.723200
17600 17601 17610 1 119.8800511 375.723200
17602 17601 17610 1 120.0200517 532.790560
17601 17602 17603 1 121.3800518 83.010560
17601 17602 17604 1 120.0200517 532.790560
17603 17602 17604 1 121.3800518 83.010560
2498 17603 9568 1 109.50000 418.400000
2498 17603 17602 1 103.70004 836.800000
2498 17603 17612 1 109.50000 418.400000
9568 17603 17602 1 103.70004 836.800000
9568 17603 17612 1 109.50000 418.400000
17602 17603 17612 1 103.70004 1034.033760
17602 17604 17605 1 119.8800511 375.723200
17602 17604 17606 1 120.0200517 532.790560
17605 17604 17606 1 119.8800511 375.723200
17604 17606 17607 1 119.8800511 375.723200
17604 17606 17608 1 120.0200517 532.790560
17607 17606 17608 1 119.8800511 375.723200
17606 17608 17609 1 119.8800511 375.723200
17606 17608 17610 1 120.0200517 532.790560
17609 17608 17610 1 119.8800511 375.723200
17601 17610 17608 1 120.0200517 532.790560
17601 17610 17611 1 119.8800511 375.723200
17608 17610 17611 1 119.8800511 375.723200
17603 17612 17613 1 115.00000 209.200000
17614 17615 17616 1 119.8800511 375.723200
17614 17615 17624 1 119.8800511 375.723200
17616 17615 17624 1 120.0200517 532.790560
17615 17616 17617 1 121.3800518 83.010560
17615 17616 17618 1 120.0200517 532.790560
17617 17616 17618 1 121.3800518 83.010560
3184 17617 6126 1 109.50000 418.400000
3184 17617 17616 1 103.70004 836.800000
3184 17617 17626 1 109.50000 418.400000
6126 17617 17616 1 103.70004 836.800000
6126 17617 17626 1 109.50000 418.400000
17616 17617 17626 1 103.70004 1034.033760
17616 17618 17619 1 119.8800511 375.723200
17616 17618 17620 1 120.0200517 532.790560
17619 17618 17620 1 119.8800511 375.723200
17618 17620 17621 1 119.8800511 375.723200
17618 17620 17622 1 120.0200517 532.790560
17621 17620 17622 1 119.8800511 375.723200
17620 17622 17623 1 119.8800511 375.723200
17620 17622 17624 1 120.0200517 532.790560
17623 17622 17624 1 119.8800511 375.723200
17615 17624 17622 1 120.0200517 532.790560
17615 17624 17625 1 119.8800511 375.723200
17622 17624 17625 1 119.8800511 375.723200
17617 17626 17627 1 115.00000 209.200000
17628 17629 17630 1 119.8800511 375.723200
17628 17629 17638 1 119.8800511 375.723200
17630 17629 17638 1 120.0200517 532.790560
17629 17630 17631 1 121.3800518 83.010560
17629 17630 17632 1 120.0200517 532.790560
17631 17630 17632 1 121.3800518 83.010560
1960 17631 9622 1 109.50000 418.400000
1960 17631 17630 1 103.70004 836.800000
1960 17631 17640 1 109.50000 418.400000
9622 17631 17630 1 103.70004 836.800000
9622 17631 17640 1 109.50000 418.400000
17630 17631 17640 1 103.70004 1034.033760
17630 17632 17633 1 119.8800511 375.723200
17630 17632 17634 1 120.0200517 532.790560
17633 17632 17634 1 119.8800511 375.723200
17632 17634 17635 1 119.8800511 375.723200
17632 17634 17636 1 120.0200517 532.790560
17635 17634 17636 1 119.8800511 375.723200
17634 17636 17637 1 119.8800511 375.723200
17634 17636 17638 1 120.0200517 532.790560
17637 17636 17638 1 119.8800511 375.723200
17629 17638 17636 1 120.0200517 532.790560
17629 17638 17639 1 119.8800511 375.723200
17636 17638 17639 1 119.8800511 375.723200
17631 17640 17641 1 115.00000 209.200000
17642 17643 17644 1 119.8800511 375.723200
17642 17643 17652 1 119.8800511 375.723200
17644 17643 17652 1 120.0200517 532.790560
17643 17644 17645 1 121.3800518 83.010560
17643 17644 17646 1 120.0200517 532.790560
17645 17644 17646 1 121.3800518 83.010560
9644 17645 9645 1 109.50000 418.400000
9644 17645 17644 1 103.70004 836.800000
9644 17645 17654 1 109.50000 418.400000
9645 17645 17644 1 103.70004 836.800000
9645 17645 17654 1 109.50000 418.400000
17644 17645 17654 1 103.70004 1034.033760
17644 17646 17647 1 119.8800511 375.723200
17644 17646 17648 1 120.0200517 532.790560
17647 17646 17648 1 119.8800511 375.723200
17646 17648 17649 1 119.8800511 375.723200
17646 17648 17650 1 120.0200517 532.790560
17649 17648 17650 1 119.8800511 375.723200
17648 17650 17651 1 119.8800511 375.723200
17648 17650 17652 1 120.0200517 532.790560
17651 17650 17652 1 119.8800511 375.723200
17643 17652 17650 1 120.0200517 532.790560
17643 17652 17653 1 119.8800511 375.723200
17650 17652 17653 1 119.8800511 375.723200
17645 17654 17655 1 115.00000 209.200000
17656 17657 17658 1 119.8800511 375.723200
17656 17657 17666 1 119.8800511 375.723200
17658 17657 17666 1 120.0200517 532.790560
17657 17658 17659 1 121.3800518 83.010560
17657 17658 17660 1 120.0200517 532.790560
17659 17658 17660 1 121.3800518 83.010560
5173 17659 9032 1 109.50000 418.400000
5173 17659 17658 1 103.70004 836.800000
5173 17659 17668 1 109.50000 418.400000
9032 17659 17658 1 103.70004 836.800000
9032 17659 17668 1 109.50000 418.400000
17658 17659 17668 1 103.70004 1034.033760
17658 17660 17661 1 119.8800511 375.723200
17658 17660 17662 1 120.0200517 532.790560
17661 17660 17662 1 119.8800511 375.723200
17660 17662 17663 1 119.8800511 375.723200
17660 17662 17664 1 120.0200517 532.790560
17663 17662 17664 1 119.8800511 375.723200
17662 17664 17665 1 119.8800511 375.723200
17662 17664 17666 1 120.0200517 532.790560
17665 17664 17666 1 119.8800511 375.723200
17657 17666 17664 1 120.0200517 532.790560
17657 17666 17667 1 119.8800511 375.723200
17664 17666 17667 1 119.8800511 375.723200
17659 17668 17669 1 115.00000 209.200000
17670 17671 17672 1 119.8800511 375.723200
17670 17671 17680 1 119.8800511 375.723200
17672 17671 17680 1 120.0200517 532.790560
17671 17672 17673 1 121.3800518 83.010560
17671 17672 17674 1 120.0200517 532.790560
17673 17672 17674 1 121.3800518 83.010560
603 17673 7772 1 109.50000 418.400000
603 17673 17672 1 103.70004 836.800000
603 17673 17682 1 109.50000 418.400000
7772 17673 17672 1 103.70004 836.800000
7772 17673 17682 1 109.50000 418.400000
17672 17673 17682 1 103.70004 1034.033760
17672 17674 17675 1 119.8800511 375.723200
17672 17674 17676 1 120.0200517 532.790560
17675 17674 17676 1 119.8800511 375.723200
17674 17676 17677 1 119.8800511 375.723200
17674 17676 17678 1 120.0200517 532.790560
17677 17676 17678 1 119.8800511 375.723200
17676 17678 17679 1 119.8800511 375.723200
17676 17678 17680 1 120.0200517 532.790560
17679 17678 17680 1 119.8800511 375.723200
17671 17680 17678 1 120.0200517 532.790560
17671 17680 17681 1 119.8800511 375.723200
17678 17680 17681 1 119.8800511 375.723200
17673 17682 17683 1 115.00000 209.200000
17684 17685 17686 1 119.8800511 375.723200
17684 17685 17694 1 119.8800511 375.723200
17686 17685 17694 1 120.0200517 532.790560
17685 17686 17687 1 121.3800518 83.010560
17685 17686 17688 1 120.0200517 532.790560
17687 17686 17688 1 121.3800518 83.010560
9764 17687 9765 1 109.50000 418.400000
9764 17687 17686 1 103.70004 836.800000
9764 17687 17696 1 109.50000 418.400000
9765 17687 17686 1 103.70004 836.800000
9765 17687 17696 1 109.50000 418.400000
17686 17687 17696 1 103.70004 1034.033760
17686 17688 17689 1 119.8800511 375.723200
17686 17688 17690 1 120.0200517 532.790560
17689 17688 17690 1 119.8800511 375.723200
17688 17690 17691 1 119.8800511 375.723200
17688 17690 17692 1 120.0200517 532.790560
17691 17690 17692 1 119.8800511 375.723200
17690 17692 17693 1 119.8800511 375.723200
17690 17692 17694 1 120.0200517 532.790560
17693 17692 17694 1 119.8800511 375.723200
17685 17694 17692 1 120.0200517 532.790560
17685 17694 17695 1 119.8800511 375.723200
17692 17694 17695 1 119.8800511 375.723200
17687 17696 17697 1 115.00000 209.200000
17698 17699 17700 1 119.8800511 375.723200
17698 17699 17708 1 119.8800511 375.723200
17700 17699 17708 1 120.0200517 532.790560
17699 17700 17701 1 121.3800518 83.010560
17699 17700 17702 1 120.0200517 532.790560
17701 17700 17702 1 121.3800518 83.010560
7732 17701 8725 1 109.50000 418.400000
7732 17701 17700 1 103.70004 836.800000
7732 17701 17710 1 109.50000 418.400000
8725 17701 17700 1 103.70004 836.800000
8725 17701 17710 1 109.50000 418.400000
17700 17701 17710 1 103.70004 1034.033760
17700 17702 17703 1 119.8800511 375.723200
17700 17702 17704 1 120.0200517 532.790560
17703 17702 17704 1 119.8800511 375.723200
17702 17704 17705 1 119.8800511 375.723200
17702 17704 17706 1 120.0200517 532.790560
17705 17704 17706 1 119.8800511 375.723200
17704 17706 17707 1 119.8800511 375.723200
17704 17706 17708 1 120.0200517 532.790560
17707 17706 17708 1 119.8800511 375.723200
17699 17708 17706 1 120.0200517 532.790560
17699 17708 17709 1 119.8800511 375.723200
17706 17708 17709 1 119.8800511 375.723200
17701 17710 17711 1 115.00000 209.200000
17712 17713 17714 1 119.8800511 375.723200
17712 17713 17722 1 119.8800511 375.723200
17714 17713 17722 1 120.0200517 532.790560
17713 17714 17715 1 121.3800518 83.010560
17713 17714 17716 1 120.0200517 532.790560
17715 17714 17716 1 121.3800518 83.010560
395 17715 9825 1 109.50000 418.400000
395 17715 17714 1 103.70004 836.800000
395 17715 17724 1 109.50000 418.400000
9825 17715 17714 1 103.70004 836.800000
9825 17715 17724 1 109.50000 418.400000
17714 17715 17724 1 103.70004 1034.033760
17714 17716 17717 1 119.8800511 375.723200
17714 17716 17718 1 120.0200517 532.790560
17717 17716 17718 1 119.8800511 375.723200
17716 17718 17719 1 119.8800511 375.723200
17716 17718 17720 1 120.0200517 532.790560
17719 17718 17720 1 119.8800511 375.723200
17718 17720 17721 1 119.8800511 375.723200
17718 17720 17722 1 120.0200517 532.790560
17721 17720 17722 1 119.8800511 375.723200
17713 17722 17720 1 120.0200517 532.790560
17713 17722 17723 1 119.8800511 375.723200
17720 17722 17723 1 119.8800511 375.723200
17715 17724 17725 1 115.00000 209.200000
17726 17727 17728 1 119.8800511 375.723200
17726 17727 17736 1 119.8800511 375.723200
17728 17727 17736 1 120.0200517 532.790560
17727 17728 17729 1 121.3800518 83.010560
17727 17728 17730 1 120.0200517 532.790560
17729 17728 17730 1 121.3800518 83.010560
3956 17729 4014 1 109.50000 418.400000
3956 17729 17728 1 103.70004 836.800000
3956 17729 17738 1 109.50000 418.400000
4014 17729 17728 1 103.70004 836.800000
4014 17729 17738 1 109.50000 418.400000
17728 17729 17738 1 103.70004 1034.033760
17728 17730 17731 1 119.8800511 375.723200
17728 17730 17732 1 120.0200517 532.790560
17731 17730 17732 1 119.8800511 375.723200
17730 17732 17733 1 119.8800511 375.723200
17730 17732 17734 1 120.0200517 532.790560
17733 17732 17734 1 119.8800511 375.723200
17732 17734 17735 1 119.8800511 375.723200
17732 17734 17736 1 120.0200517 532.790560
17735 17734 17736 1 119.8800511 375.723200
17727 17736 17734 1 120.0200517 532.790560
17727 17736 17737 1 119.8800511 375.723200
17734 17736 17737 1 119.8800511 375.723200
17729 17738 17739 1 115.00000 209.200000
17740 17741 17742 1 119.8800511 375.723200
17740 17741 17750 1 119.8800511 375.723200
17742 17741 17750 1 120.0200517 532.790560
17741 17742 17743 1 121.3800518 83.010560
17741 17742 17744 1 120.0200517 532.790560
17743 17742 17744 1 121.3800518 83.010560
5580 17743 5581 1 109.50000 418.400000
5580 17743 17742 1 103.70004 836.800000
5580 17743 17752 1 109.50000 418.400000
5581 17743 17742 1 103.70004 836.800000
5581 17743 17752 1 109.50000 418.400000
17742 17743 17752 1 103.70004 1034.033760
17742 17744 17745 1 119.8800511 375.723200
17742 17744 17746 1 120.0200517 532.790560
17745 17744 17746 1 119.8800511 375.723200
17744 17746 17747 1 119.8800511 375.723200
17744 17746 17748 1 120.0200517 532.790560
17747 17746 17748 1 119.8800511 375.723200
17746 17748 17749 1 119.8800511 375.723200
17746 17748 17750 1 120.0200517 532.790560
17749 17748 17750 1 119.8800511 375.723200
17741 17750 17748 1 120.0200517 532.790560
17741 17750 17751 1 119.8800511 375.723200
17748 17750 17751 1 119.8800511 375.723200
17743 17752 17753 1 115.00000 209.200000
17754 17755 17756 1 119.8800511 375.723200
17754 17755 17764 1 119.8800511 375.723200
17756 17755 17764 1 120.0200517 532.790560
17755 17756 17757 1 121.3800518 83.010560
17755 17756 17758 1 120.0200517 532.790560
17757 17756 17758 1 121.3800518 83.010560
5437 17757 8438 1 109.50000 418.400000
5437 17757 17756 1 103.70004 836.800000
5437 17757 17766 1 109.50000 418.400000
8438 17757 17756 1 103.70004 836.800000
8438 17757 17766 1 109.50000 418.400000
17756 17757 17766 1 103.70004 1034.033760
17756 17758 17759 1 119.8800511 375.723200
17756 17758 17760 1 120.0200517 532.790560
17759 17758 17760 1 119.8800511 375.723200
17758 17760 17761 1 119.8800511 375.723200
17758 17760 17762 1 120.0200517 532.790560
17761 17760 17762 1 119.8800511 375.723200
17760 17762 17763 1 119.8800511 375.723200
17760 17762 17764 1 120.0200517 532.790560
17763 17762 17764 1 119.8800511 375.723200
17755 17764 17762 1 120.0200517 532.790560
17755 17764 17765 1 119.8800511 375.723200
17762 17764 17765 1 119.8800511 375.723200
17757 17766 17767 1 115.00000 209.200000
17768 17769 17770 1 119.8800511 375.723200
17768 17769 17778 1 119.8800511 375.723200
17770 17769 17778 1 120.0200517 532.790560
17769 17770 17771 1 121.3800518 83.010560
17769 17770 17772 1 120.0200517 532.790560
17771 17770 17772 1 121.3800518 83.010560
7020 17771 9542 1 109.50000 418.400000
7020 17771 17770 1 103.70004 836.800000
7020 17771 17780 1 109.50000 418.400000
9542 17771 17770 1 103.70004 836.800000
9542 17771 17780 1 109.50000 418.400000
17770 17771 17780 1 103.70004 1034.033760
17770 17772 17773 1 119.8800511 375.723200
17770 17772 17774 1 120.0200517 532.790560
17773 17772 17774 1 119.8800511 375.723200
17772 17774 17775 1 119.8800511 375.723200
17772 17774 17776 1 120.0200517 532.790560
17775 17774 17776 1 119.8800511 375.723200
17774 17776 17777 1 119.8800511 375.723200
17774 17776 17778 1 120.0200517 532.790560
17777 17776 17778 1 119.8800511 375.723200
17769 17778 17776 1 120.0200517 532.790560
17769 17778 17779 1 119.8800511 375.723200
17776 17778 17779 1 119.8800511 375.723200
17771 17780 17781 1 115.00000 209.200000
17782 17783 17784 1 119.8800511 375.723200
17782 17783 17792 1 119.8800511 375.723200
17784 17783 17792 1 120.0200517 532.790560
17783 17784 17785 1 121.3800518 83.010560
17783 17784 17786 1 120.0200517 532.790560
17785 17784 17786 1 121.3800518 83.010560
7981 17785 9990 1 109.50000 418.400000
7981 17785 17784 1 103.70004 836.800000
7981 17785 17794 1 109.50000 418.400000
9990 17785 17784 1 103.70004 836.800000
9990 17785 17794 1 109.50000 418.400000
17784 17785 17794 1 103.70004 1034.033760
17784 17786 17787 1 119.8800511 375.723200
17784 17786 17788 1 120.0200517 532.790560
17787 17786 17788 1 119.8800511 375.723200
17786 17788 17789 1 119.8800511 375.723200
17786 17788 17790 1 120.0200517 532.790560
17789 17788 17790 1 119.8800511 375.723200
17788 17790 17791 1 119.8800511 375.723200
17788 17790 17792 1 120.0200517 532.790560
17791 17790 17792 1 119.8800511 375.723200
17783 17792 17790 1 120.0200517 532.790560
17783 17792 17793 1 119.8800511 375.723200
17790 17792 17793 1 119.8800511 375.723200
17785 17794 17795 1 115.00000 209.200000
17796 17797 17798 1 119.8800511 375.723200
17796 17797 17806 1 119.8800511 375.723200
17798 17797 17806 1 120.0200517 532.790560
17797 17798 17799 1 121.3800518 83.010560
17797 17798 17800 1 120.0200517 532.790560
17799 17798 17800 1 121.3800518 83.010560
2148 17799 8296 1 109.50000 418.400000
2148 17799 17798 1 103.70004 836.800000
2148 17799 17808 1 109.50000 418.400000
8296 17799 17798 1 103.70004 836.800000
8296 17799 17808 1 109.50000 418.400000
17798 17799 17808 1 103.70004 1034.033760
17798 17800 17801 1 119.8800511 375.723200
17798 17800 17802 1 120.0200517 532.790560
17801 17800 17802 1 119.8800511 375.723200
17800 17802 17803 1 119.8800511 375.723200
17800 17802 17804 1 120.0200517 532.790560
17803 17802 17804 1 119.8800511 375.723200
17802 17804 17805 1 119.8800511 375.723200
17802 17804 17806 1 120.0200517 532.790560
17805 17804 17806 1 119.8800511 375.723200
17797 17806 17804 1 120.0200517 532.790560
17797 17806 17807 1 119.8800511 375.723200
17804 17806 17807 1 119.8800511 375.723200
17799 17808 17809 1 115.00000 209.200000
17810 17811 17812 1 119.8800511 375.723200
17810 17811 17820 1 119.8800511 375.723200
17812 17811 17820 1 120.0200517 532.790560
17811 17812 17813 1 121.3800518 83.010560
17811 17812 17814 1 120.0200517 532.790560
17813 17812 17814 1 121.3800518 83.010560
2421 17813 2591 1 109.50000 418.400000
2421 17813 17812 1 103.70004 836.800000
2421 17813 17822 1 109.50000 418.400000
2591 17813 17812 1 103.70004 836.800000
2591 17813 17822 1 109.50000 418.400000
17812 17813 17822 1 103.70004 1034.033760
17812 17814 17815 1 119.8800511 375.723200
17812 17814 17816 1 120.0200517 532.790560
17815 17814 17816 1 119.8800511 375.723200
17814 17816 17817 1 119.8800511 375.723200
17814 17816 17818 1 120.0200517 532.790560
17817 17816 17818 1 119.8800511 375.723200
17816 17818 17819 1 119.8800511 375.723200
17816 17818 17820 1 120.0200517 532.790560
17819 17818 17820 1 119.8800511 375.723200
17811 17820 17818 1 120.0200517 532.790560
17811 17820 17821 1 119.8800511 375.723200
17818 17820 17821 1 119.8800511 375.723200
17813 17822 17823 1 115.00000 209.200000
17824 17825 17826 1 119.8800511 375.723200
17824 17825 17834 1 119.8800511 375.723200
17826 17825 17834 1 120.0200517 532.790560
17825 17826 17827 1 121.3800518 83.010560
17825 17826 17828 1 120.0200517 532.790560
17827 17826 17828 1 121.3800518 83.010560
8095 17827 10083 1 109.50000 418.400000
8095 17827 17826 1 103.70004 836.800000
8095 17827 17836 1 109.50000 418.400000
10083 17827 17826 1 103.70004 836.800000
10083 17827 17836 1 109.50000 418.400000
17826 17827 17836 1 103.70004 1034.033760
17826 17828 17829 1 119.8800511 375.723200
17826 17828 17830 1 120.0200517 532.790560
17829 17828 17830 1 119.8800511 375.723200
17828 17830 17831 1 119.8800511 375.723200
17828 17830 17832 1 120.0200517 532.790560
17831 17830 17832 1 119.8800511 375.723200
17830 17832 17833 1 119.8800511 375.723200
17830 17832 17834 1 120.0200517 532.790560
17833 17832 17834 1 119.8800511 375.723200
17825 17834 17832 1 120.0200517 532.790560
17825 17834 17835 1 119.8800511 375.723200
17832 17834 17835 1 119.8800511 375.723200
17827 17836 17837 1 115.00000 209.200000
17838 17839 17840 1 119.8800511 375.723200
17838 17839 17848 1 119.8800511 375.723200
17840 17839 17848 1 120.0200517 532.790560
17839 17840 17841 1 121.3800518 83.010560
17839 17840 17842 1 120.0200517 532.790560
17841 17840 17842 1 121.3800518 83.010560
1481 17841 3644 1 109.50000 418.400000
1481 17841 17840 1 103.70004 836.800000
1481 17841 17850 1 109.50000 418.400000
3644 17841 17840 1 103.70004 836.800000
3644 17841 17850 1 109.50000 418.400000
17840 17841 17850 1 103.70004 1034.033760
17840 17842 17843 1 119.8800511 375.723200
17840 17842 17844 1 120.0200517 532.790560
17843 17842 17844 1 119.8800511 375.723200
17842 17844 17845 1 119.8800511 375.723200
17842 17844 17846 1 120.0200517 532.790560
17845 17844 17846 1 119.8800511 375.723200
17844 17846 17847 1 119.8800511 375.723200
17844 17846 17848 1 120.0200517 532.790560
17847 17846 17848 1 119.8800511 375.723200
17839 17848 17846 1 120.0200517 532.790560
17839 17848 17849 1 119.8800511 375.723200
17846 17848 17849 1 119.8800511 375.723200
17841 17850 17851 1 115.00000 209.200000
17852 17853 17854 1 119.8800511 375.723200
17852 17853 17862 1 119.8800511 375.723200
17854 17853 17862 1 120.0200517 532.790560
17853 17854 17855 1 121.3800518 83.010560
17853 17854 17856 1 120.0200517 532.790560
17855 17854 17856 1 121.3800518 83.010560
3635 17855 7073 1 109.50000 418.400000
3635 17855 17854 1 103.70004 836.800000
3635 17855 17864 1 109.50000 418.400000
7073 17855 17854 1 103.70004 836.800000
7073 17855 17864 1 109.50000 418.400000
17854 17855 17864 1 103.70004 1034.033760
17854 17856 17857 1 119.8800511 375.723200
17854 17856 17858 1 120.0200517 532.790560
17857 17856 17858 1 119.8800511 375.723200
17856 17858 17859 1 119.8800511 375.723200
17856 17858 17860 1 120.0200517 532.790560
17859 17858 17860 1 119.8800511 375.723200
17858 17860 17861 1 119.8800511 375.723200
17858 17860 17862 1 120.0200517 532.790560
17861 17860 17862 1 119.8800511 375.723200
17853 17862 17860 1 120.0200517 532.790560
17853 17862 17863 1 119.8800511 375.723200
17860 17862 17863 1 119.8800511 375.723200
17855 17864 17865 1 115.00000 209.200000
17866 17867 17868 1 119.8800511 375.723200
17866 17867 17876 1 119.8800511 375.723200
17868 17867 17876 1 120.0200517 532.790560
17867 17868 17869 1 121.3800518 83.010560
17867 17868 17870 1 120.0200517 532.790560
17869 17868 17870 1 121.3800518 83.010560
2624 17869 10143 1 109.50000 418.400000
2624 17869 17868 1 103.70004 836.800000
2624 17869 17878 1 109.50000 418.400000
10143 17869 17868 1 103.70004 836.800000
10143 17869 17878 1 109.50000 418.400000
17868 17869 17878 1 103.70004 1034.033760
17868 17870 17871 1 119.8800511 375.723200
17868 17870 17872 1 120.0200517 532.790560
17871 17870 17872 1 119.8800511 375.723200
17870 17872 17873 1 119.8800511 375.723200
17870 17872 17874 1 120.0200517 532.790560
17873 17872 17874 1 119.8800511 375.723200
17872 17874 17875 1 119.8800511 375.723200
17872 17874 17876 1 120.0200517 532.790560
17875 17874 17876 1 119.8800511 375.723200
17867 17876 17874 1 120.0200517 532.790560
17867 17876 17877 1 119.8800511 375.723200
17874 17876 17877 1 119.8800511 375.723200
17869 17878 17879 1 115.00000 209.200000
17880 17881 17882 1 119.8800511 375.723200
17880 17881 17890 1 119.8800511 375.723200
17882 17881 17890 1 120.0200517 532.790560
17881 17882 17883 1 121.3800518 83.010560
17881 17882 17884 1 120.0200517 532.790560
17883 17882 17884 1 121.3800518 83.010560
241 17883 9643 1 109.50000 418.400000
241 17883 17882 1 103.70004 836.800000
241 17883 17892 1 109.50000 418.400000
9643 17883 17882 1 103.70004 836.800000
9643 17883 17892 1 109.50000 418.400000
17882 17883 17892 1 103.70004 1034.033760
17882 17884 17885 1 119.8800511 375.723200
17882 17884 17886 1 120.0200517 532.790560
17885 17884 17886 1 119.8800511 375.723200
17884 17886 17887 1 119.8800511 375.723200
17884 17886 17888 1 120.0200517 532.790560
17887 17886 17888 1 119.8800511 375.723200
17886 17888 17889 1 119.8800511 375.723200
17886 17888 17890 1 120.0200517 532.790560
17889 17888 17890 1 119.8800511 375.723200
17881 17890 17888 1 120.0200517 532.790560
17881 17890 17891 1 119.8800511 375.723200
17888 17890 17891 1 119.8800511 375.723200
17883 17892 17893 1 115.00000 209.200000
17894 17895 17896 1 119.8800511 375.723200
17894 17895 17904 1 119.8800511 375.723200
17896 17895 17904 1 120.0200517 532.790560
17895 17896 17897 1 121.3800518 83.010560
17895 17896 17898 1 120.0200517 532.790560
17897 17896 17898 1 121.3800518 83.010560
5709 17897 6741 1 109.50000 418.400000
5709 17897 17896 1 103.70004 836.800000
5709 17897 17906 1 109.50000 418.400000
6741 17897 17896 1 103.70004 836.800000
6741 17897 17906 1 109.50000 418.400000
17896 17897 17906 1 103.70004 1034.033760
17896 17898 17899 1 119.8800511 375.723200
17896 17898 17900 1 120.0200517 532.790560
17899 17898 17900 1 119.8800511 375.723200
17898 17900 17901 1 119.8800511 375.723200
17898 17900 17902 1 120.0200517 532.790560
17901 17900 17902 1 119.8800511 375.723200
17900 17902 17903 1 119.8800511 375.723200
17900 17902 17904 1 120.0200517 532.790560
17903 17902 17904 1 119.8800511 375.723200
17895 17904 17902 1 120.0200517 532.790560
17895 17904 17905 1 119.8800511 375.723200
17902 17904 17905 1 119.8800511 375.723200
17897 17906 17907 1 115.00000 209.200000
17908 17909 17910 1 119.8800511 375.723200
17908 17909 17918 1 119.8800511 375.723200
17910 17909 17918 1 120.0200517 532.790560
17909 17910 17911 1 121.3800518 83.010560
17909 17910 17912 1 120.0200517 532.790560
17911 17910 17912 1 121.3800518 83.010560
4363 17911 9648 1 109.50000 418.400000
4363 17911 17910 1 103.70004 836.800000
4363 17911 17920 1 109.50000 418.400000
9648 17911 17910 1 103.70004 836.800000
9648 17911 17920 1 109.50000 418.400000
17910 17911 17920 1 103.70004 1034.033760
17910 17912 17913 1 119.8800511 375.723200
17910 17912 17914 1 120.0200517 532.790560
17913 17912 17914 1 119.8800511 375.723200
17912 17914 17915 1 119.8800511 375.723200
17912 17914 17916 1 120.0200517 532.790560
17915 17914 17916 1 119.8800511 375.723200
17914 17916 17917 1 119.8800511 375.723200
17914 17916 17918 1 120.0200517 532.790560
17917 17916 17918 1 119.8800511 375.723200
17909 17918 17916 1 120.0200517 532.790560
17909 17918 17919 1 119.8800511 375.723200
17916 17918 17919 1 119.8800511 375.723200
17911 17920 17921 1 115.00000 209.200000
17922 17923 17924 1 119.8800511 375.723200
17922 17923 17932 1 119.8800511 375.723200
17924 17923 17932 1 120.0200517 532.790560
17923 17924 17925 1 121.3800518 83.010560
17923 17924 17926 1 120.0200517 532.790560
17925 17924 17926 1 121.3800518 83.010560
6492 17925 10307 1 109.50000 418.400000
6492 17925 17924 1 103.70004 836.800000
6492 17925 17934 1 109.50000 418.400000
10307 17925 17924 1 103.70004 836.800000
10307 17925 17934 1 109.50000 418.400000
17924 17925 17934 1 103.70004 1034.033760
17924 17926 17927 1 119.8800511 375.723200
17924 17926 17928 1 120.0200517 532.790560
17927 17926 17928 1 119.8800511 375.723200
17926 17928 17929 1 119.8800511 375.723200
17926 17928 17930 1 120.0200517 532.790560
17929 17928 17930 1 119.8800511 375.723200
17928 17930 17931 1 119.8800511 375.723200
17928 17930 17932 1 120.0200517 532.790560
17931 17930 17932 1 119.8800511 375.723200
17923 17932 17930 1 120.0200517 532.790560
17923 17932 17933 1 119.8800511 375.723200
17930 17932 17933 1 119.8800511 375.723200
17925 17934 17935 1 115.00000 209.200000
17936 17937 17938 1 119.8800511 375.723200
17936 17937 17946 1 119.8800511 375.723200
17938 17937 17946 1 120.0200517 532.790560
17937 17938 17939 1 121.3800518 83.010560
17937 17938 17940 1 120.0200517 532.790560
17939 17938 17940 1 121.3800518 83.010560
4051 17939 10314 1 109.50000 418.400000
4051 17939 17938 1 103.70004 836.800000
4051 17939 17948 1 109.50000 418.400000
10314 17939 17938 1 103.70004 836.800000
10314 17939 17948 1 109.50000 418.400000
17938 17939 17948 1 103.70004 1034.033760
17938 17940 17941 1 119.8800511 375.723200
17938 17940 17942 1 120.0200517 532.790560
17941 17940 17942 1 119.8800511 375.723200
17940 17942 17943 1 119.8800511 375.723200
17940 17942 17944 1 120.0200517 532.790560
17943 17942 17944 1 119.8800511 375.723200
17942 17944 17945 1 119.8800511 375.723200
17942 17944 17946 1 120.0200517 532.790560
17945 17944 17946 1 119.8800511 375.723200
17937 17946 17944 1 120.0200517 532.790560
17937 17946 17947 1 119.8800511 375.723200
17944 17946 17947 1 119.8800511 375.723200
17939 17948 17949 1 115.00000 209.200000
17950 17951 17952 1 119.8800511 375.723200
17950 17951 17960 1 119.8800511 375.723200
17952 17951 17960 1 120.0200517 532.790560
17951 17952 17953 1 121.3800518 83.010560
17951 17952 17954 1 120.0200517 532.790560
17953 17952 17954 1 121.3800518 83.010560
178 17953 6130 1 109.50000 418.400000
178 17953 17952 1 103.70004 836.800000
178 17953 17962 1 109.50000 418.400000
6130 17953 17952 1 103.70004 836.800000
6130 17953 17962 1 109.50000 418.400000
17952 17953 17962 1 103.70004 1034.033760
17952 17954 17955 1 119.8800511 375.723200
17952 17954 17956 1 120.0200517 532.790560
17955 17954 17956 1 119.8800511 375.723200
17954 17956 17957 1 119.8800511 375.723200
17954 17956 17958 1 120.0200517 532.790560
17957 17956 17958 1 119.8800511 375.723200
17956 17958 17959 1 119.8800511 375.723200
17956 17958 17960 1 120.0200517 532.790560
17959 17958 17960 1 119.8800511 375.723200
17951 17960 17958 1 120.0200517 532.790560
17951 17960 17961 1 119.8800511 375.723200
17958 17960 17961 1 119.8800511 375.723200
17953 17962 17963 1 115.00000 209.200000
17964 17965 17966 1 119.8800511 375.723200
17964 17965 17974 1 119.8800511 375.723200
17966 17965 17974 1 120.0200517 532.790560
17965 17966 17967 1 121.3800518 83.010560
17965 17966 17968 1 120.0200517 532.790560
17967 17966 17968 1 121.3800518 83.010560
5333 17967 8617 1 109.50000 418.400000
5333 17967 17966 1 103.70004 836.800000
5333 17967 17976 1 109.50000 418.400000
8617 17967 17966 1 103.70004 836.800000
8617 17967 17976 1 109.50000 418.400000
17966 17967 17976 1 103.70004 1034.033760
17966 17968 17969 1 119.8800511 375.723200
17966 17968 17970 1 120.0200517 532.790560
17969 17968 17970 1 119.8800511 375.723200
17968 17970 17971 1 119.8800511 375.723200
17968 17970 17972 1 120.0200517 532.790560
17971 17970 17972 1 119.8800511 375.723200
17970 17972 17973 1 119.8800511 375.723200
17970 17972 17974 1 120.0200517 532.790560
17973 17972 17974 1 119.8800511 375.723200
17965 17974 17972 1 120.0200517 532.790560
17965 17974 17975 1 119.8800511 375.723200
17972 17974 17975 1 119.8800511 375.723200
17967 17976 17977 1 115.00000 209.200000
17978 17979 17980 1 119.8800511 375.723200
17978 17979 17988 1 119.8800511 375.723200
17980 17979 17988 1 120.0200517 532.790560
17979 17980 17981 1 121.3800518 83.010560
17979 17980 17982 1 120.0200517 532.790560
17981 17980 17982 1 121.3800518 83.010560
1180 17981 2990 1 109.50000 418.400000
1180 17981 17980 1 103.70004 836.800000
1180 17981 17990 1 109.50000 418.400000
2990 17981 17980 1 103.70004 836.800000
2990 17981 17990 1 109.50000 418.400000
17980 17981 17990 1 103.70004 1034.033760
17980 17982 17983 1 119.8800511 375.723200
17980 17982 17984 1 120.0200517 532.790560
17983 17982 17984 1 119.8800511 375.723200
17982 17984 17985 1 119.8800511 375.723200
17982 17984 17986 1 120.0200517 532.790560
17985 17984 17986 1 119.8800511 375.723200
17984 17986 17987 1 119.8800511 375.723200
17984 17986 17988 1 120.0200517 532.790560
17987 17986 17988 1 119.8800511 375.723200
17979 17988 17986 1 120.0200517 532.790560
17979 17988 17989 1 119.8800511 375.723200
17986 17988 17989 1 119.8800511 375.723200
17981 17990 17991 1 115.00000 209.200000
17992 17993 17994 1 119.8800511 375.723200
17992 17993 18002 1 119.8800511 375.723200
17994 17993 18002 1 120.0200517 532.790560
17993 17994 17995 1 121.3800518 83.010560
17993 17994 17996 1 120.0200517 532.790560
17995 17994 17996 1 121.3800518 83.010560
9456 17995 10397 1 109.50000 418.400000
9456 17995 17994 1 103.70004 836.800000
9456 17995 18004 1 109.50000 418.400000
10397 17995 17994 1 103.70004 836.800000
10397 17995 18004 1 109.50000 418.400000
17994 17995 18004 1 103.70004 1034.033760
17994 17996 17997 1 119.8800511 375.723200
17994 17996 17998 1 120.0200517 532.790560
17997 17996 17998 1 119.8800511 375.723200
17996 17998 17999 1 119.8800511 375.723200
17996 17998 18000 1 120.0200517 532.790560
17999 17998 18000 1 119.8800511 375.723200
17998 18000 18001 1 119.8800511 375.723200
17998 18000 18002 1 120.0200517 532.790560
18001 18000 18002 1 119.8800511 375.723200
17993 18002 18000 1 120.0200517 532.790560
17993 18002 18003 1 119.8800511 375.723200
18000 18002 18003 1 119.8800511 375.723200
17995 18004 18005 1 115.00000 209.200000
18006 18007 18008 1 119.8800511 375.723200
18006 18007 18016 1 119.8800511 375.723200
18008 18007 18016 1 120.0200517 532.790560
18007 18008 18009 1 121.3800518 83.010560
18007 18008 18010 1 120.0200517 532.790560
18009 18008 18010 1 121.3800518 83.010560
6440 18009 6664 1 109.50000 418.400000
6440 18009 18008 1 103.70004 836.800000
6440 18009 18018 1 109.50000 418.400000
6664 18009 18008 1 103.70004 836.800000
6664 18009 18018 1 109.50000 418.400000
18008 18009 18018 1 103.70004 1034.033760
18008 18010 18011 1 119.8800511 375.723200
18008 18010 18012 1 120.0200517 532.790560
18011 18010 18012 1 119.8800511 375.723200
18010 18012 18013 1 119.8800511 375.723200
18010 18012 18014 1 120.0200517 532.790560
18013 18012 18014 1 119.8800511 375.723200
18012 18014 18015 1 119.8800511 375.723200
18012 18014 18016 1 120.0200517 532.790560
18015 18014 18016 1 119.8800511 375.723200
18007 18016 18014 1 120.0200517 532.790560
18007 18016 18017 1 119.8800511 375.723200
18014 18016 18017 1 119.8800511 375.723200
18009 18018 18019 1 115.00000 209.200000
18020 18021 18022 1 119.8800511 375.723200
18020 18021 18030 1 119.8800511 375.723200
18022 18021 18030 1 120.0200517 532.790560
18021 18022 18023 1 121.3800518 83.010560
18021 18022 18024 1 120.0200517 532.790560
18023 18022 18024 1 121.3800518 83.010560
3560 18023 8785 1 109.50000 418.400000
3560 18023 18022 1 103.70004 836.800000
3560 18023 18032 1 109.50000 418.400000
8785 18023 18022 1 103.70004 836.800000
8785 18023 18032 1 109.50000 418.400000
18022 18023 18032 1 103.70004 1034.033760
18022 18024 18025 1 119.8800511 375.723200
18022 18024 18026 1 120.0200517 532.790560
18025 18024 18026 1 119.8800511 375.723200
18024 18026 18027 1 119.8800511 375.723200
18024 18026 18028 1 120.0200517 532.790560
18027 18026 18028 1 119.8800511 375.723200
18026 18028 18029 1 119.8800511 375.723200
18026 18028 18030 1 120.0200517 532.790560
18029 18028 18030 1 119.8800511 375.723200
18021 18030 18028 1 120.0200517 532.790560
18021 18030 18031 1 119.8800511 375.723200
18028 18030 18031 1 119.8800511 375.723200
18023 18032 18033 1 115.00000 209.200000
18034 18035 18036 1 119.8800511 375.723200
18034 18035 18044 1 119.8800511 375.723200
18036 18035 18044 1 120.0200517 532.790560
18035 18036 18037 1 121.3800518 83.010560
18035 18036 18038 1 120.0200517 532.790560
18037 18036 18038 1 121.3800518 83.010560
6235 18037 9622 1 109.50000 418.400000
6235 18037 18036 1 103.70004 836.800000
6235 18037 18046 1 109.50000 418.400000
9622 18037 18036 1 103.70004 836.800000
9622 18037 18046 1 109.50000 418.400000
18036 18037 18046 1 103.70004 1034.033760
18036 18038 18039 1 119.8800511 375.723200
18036 18038 18040 1 120.0200517 532.790560
18039 18038 18040 1 119.8800511 375.723200
18038 18040 18041 1 119.8800511 375.723200
18038 18040 18042 1 120.0200517 532.790560
18041 18040 18042 1 119.8800511 375.723200
18040 18042 18043 1 119.8800511 375.723200
18040 18042 18044 1 120.0200517 532.790560
18043 18042 18044 1 119.8800511 375.723200
18035 18044 18042 1 120.0200517 532.790560
18035 18044 18045 1 119.8800511 375.723200
18042 18044 18045 1 119.8800511 375.723200
18037 18046 18047 1 115.00000 209.200000
18048 18049 18050 1 119.8800511 375.723200
18048 18049 18058 1 119.8800511 375.723200
18050 18049 18058 1 120.0200517 532.790560
18049 18050 18051 1 121.3800518 83.010560
18049 18050 18052 1 120.0200517 532.790560
18051 18050 18052 1 121.3800518 83.010560
31 18051 10549 1 109.50000 418.400000
31 18051 18050 1 103.70004 836.800000
31 18051 18060 1 109.50000 418.400000
10549 18051 18050 1 103.70004 836.800000
10549 18051 18060 1 109.50000 418.400000
18050 18051 18060 1 103.70004 1034.033760
18050 18052 18053 1 119.8800511 375.723200
18050 18052 18054 1 120.0200517 532.790560
18053 18052 18054 1 119.8800511 375.723200
18052 18054 18055 1 119.8800511 375.723200
18052 18054 18056 1 120.0200517 532.790560
18055 18054 18056 1 119.8800511 375.723200
18054 18056 18057 1 119.8800511 375.723200
18054 18056 18058 1 120.0200517 532.790560
18057 18056 18058 1 119.8800511 375.723200
18049 18058 18056 1 120.0200517 532.790560
18049 18058 18059 1 119.8800511 375.723200
18056 18058 18059 1 119.8800511 375.723200
18051 18060 18061 1 115.00000 209.200000
18062 18063 18064 1 119.8800511 375.723200
18062 18063 18072 1 119.8800511 375.723200
18064 18063 18072 1 120.0200517 532.790560
18063 18064 18065 1 121.3800518 83.010560
18063 18064 18066 1 120.0200517 532.790560
18065 18064 18066 1 121.3800518 83.010560
514 18065 3976 1 109.50000 418.400000
514 18065 18064 1 103.70004 836.800000
514 18065 18074 1 109.50000 418.400000
3976 18065 18064 1 103.70004 836.800000
3976 18065 18074 1 109.50000 418.400000
18064 18065 18074 1 103.70004 1034.033760
18064 18066 18067 1 119.8800511 375.723200
18064 18066 18068 1 120.0200517 532.790560
18067 18066 18068 1 119.8800511 375.723200
18066 18068 18069 1 119.8800511 375.723200
18066 18068 18070 1 120.0200517 532.790560
18069 18068 18070 1 119.8800511 375.723200
18068 18070 18071 1 119.8800511 375.723200
18068 18070 18072 1 120.0200517 532.790560
18071 18070 18072 1 119.8800511 375.723200
18063 18072 18070 1 120.0200517 532.790560
18063 18072 18073 1 119.8800511 375.723200
18070 18072 18073 1 119.8800511 375.723200
18065 18074 18075 1 115.00000 209.200000
18076 18077 18078 1 119.8800511 375.723200
18076 18077 18086 1 119.8800511 375.723200
18078 18077 18086 1 120.0200517 532.790560
18077 18078 18079 1 121.3800518 83.010560
18077 18078 18080 1 120.0200517 532.790560
18079 18078 18080 1 121.3800518 83.010560
2839 18079 9765 1 109.50000 418.400000
2839 18079 18078 1 103.70004 836.800000
2839 18079 18088 1 109.50000 418.400000
9765 18079 18078 1 103.70004 836.800000
9765 18079 18088 1 109.50000 418.400000
18078 18079 18088 1 103.70004 1034.033760
18078 18080 18081 1 119.8800511 375.723200
18078 18080 18082 1 120.0200517 532.790560
18081 18080 18082 1 119.8800511 375.723200
18080 18082 18083 1 119.8800511 375.723200
18080 18082 18084 1 120.0200517 532.790560
18083 18082 18084 1 119.8800511 375.723200
18082 18084 18085 1 119.8800511 375.723200
18082 18084 18086 1 120.0200517 532.790560
18085 18084 18086 1 119.8800511 375.723200
18077 18086 18084 1 120.0200517 532.790560
18077 18086 18087 1 119.8800511 375.723200
18084 18086 18087 1 119.8800511 375.723200
18079 18088 18089 1 115.00000 209.200000
18090 18091 18092 1 119.8800511 375.723200
18090 18091 18100 1 119.8800511 375.723200
18092 18091 18100 1 120.0200517 532.790560
18091 18092 18093 1 121.3800518 83.010560
18091 18092 18094 1 120.0200517 532.790560
18093 18092 18094 1 121.3800518 83.010560
4050 18093 10033 1 109.50000 418.400000
4050 18093 18092 1 103.70004 836.800000
4050 18093 18102 1 109.50000 418.400000
10033 18093 18092 1 103.70004 836.800000
10033 18093 18102 1 109.50000 418.400000
18092 18093 18102 1 103.70004 1034.033760
18092 18094 18095 1 119.8800511 375.723200
18092 18094 18096 1 120.0200517 532.790560
18095 18094 18096 1 119.8800511 375.723200
18094 18096 18097 1 119.8800511 375.723200
18094 18096 18098 1 120.0200517 532.790560
18097 18096 18098 1 119.8800511 375.723200
18096 18098 18099 1 119.8800511 375.723200
18096 18098 18100 1 120.0200517 532.790560
18099 18098 18100 1 119.8800511 375.723200
18091 18100 18098 1 120.0200517 532.790560
18091 18100 18101 1 119.8800511 375.723200
18098 18100 18101 1 119.8800511 375.723200
18093 18102 18103 1 115.00000 209.200000
18104 18105 18106 1 119.8800511 375.723200
18104 18105 18114 1 119.8800511 375.723200
18106 18105 18114 1 120.0200517 532.790560
18105 18106 18107 1 121.3800518 83.010560
18105 18106 18108 1 120.0200517 532.790560
18107 18106 18108 1 121.3800518 83.010560
416 18107 7933 1 109.50000 418.400000
416 18107 18106 1 103.70004 836.800000
416 18107 18116 1 109.50000 418.400000
7933 18107 18106 1 103.70004 836.800000
7933 18107 18116 1 109.50000 418.400000
18106 18107 18116 1 103.70004 1034.033760
18106 18108 18109 1 119.8800511 375.723200
18106 18108 18110 1 120.0200517 532.790560
18109 18108 18110 1 119.8800511 375.723200
18108 18110 18111 1 119.8800511 375.723200
18108 18110 18112 1 120.0200517 532.790560
18111 18110 18112 1 119.8800511 375.723200
18110 18112 18113 1 119.8800511 375.723200
18110 18112 18114 1 120.0200517 532.790560
18113 18112 18114 1 119.8800511 375.723200
18105 18114 18112 1 120.0200517 532.790560
18105 18114 18115 1 119.8800511 375.723200
18112 18114 18115 1 119.8800511 375.723200
18107 18116 18117 1 115.00000 209.200000
18118 18119 18120 1 119.8800511 375.723200
18118 18119 18128 1 119.8800511 375.723200
18120 18119 18128 1 120.0200517 532.790560
18119 18120 18121 1 121.3800518 83.010560
18119 18120 18122 1 120.0200517 532.790560
18121 18120 18122 1 121.3800518 83.010560
10409 18121 10694 1 109.50000 418.400000
10409 18121 18120 1 103.70004 836.800000
10409 18121 18130 1 109.50000 418.400000
10694 18121 18120 1 103.70004 836.800000
10694 18121 18130 1 109.50000 418.400000
18120 18121 18130 1 103.70004 1034.033760
18120 18122 18123 1 119.8800511 375.723200
18120 18122 18124 1 120.0200517 532.790560
18123 18122 18124 1 119.8800511 375.723200
18122 18124 18125 1 119.8800511 375.723200
18122 18124 18126 1 120.0200517 532.790560
18125 18124 18126 1 119.8800511 375.723200
18124 18126 18127 1 119.8800511 375.723200
18124 18126 18128 1 120.0200517 532.790560
18127 18126 18128 1 119.8800511 375.723200
18119 18128 18126 1 120.0200517 532.790560
18119 18128 18129 1 119.8800511 375.723200
18126 18128 18129 1 119.8800511 375.723200
18121 18130 18131 1 115.00000 209.200000
18132 18133 18134 1 119.8800511 375.723200
18132 18133 18142 1 119.8800511 375.723200
18134 18133 18142 1 120.0200517 532.790560
18133 18134 18135 1 121.3800518 83.010560
18133 18134 18136 1 120.0200517 532.790560
18135 18134 18136 1 121.3800518 83.010560
8938 18135 9991 1 109.50000 418.400000
8938 18135 18134 1 103.70004 836.800000
8938 18135 18144 1 109.50000 418.400000
9991 18135 18134 1 103.70004 836.800000
9991 18135 18144 1 109.50000 418.400000
18134 18135 18144 1 103.70004 1034.033760
18134 18136 18137 1 119.8800511 375.723200
18134 18136 18138 1 120.0200517 532.790560
18137 18136 18138 1 119.8800511 375.723200
18136 18138 18139 1 119.8800511 375.723200
18136 18138 18140 1 120.0200517 532.790560
18139 18138 18140 1 119.8800511 375.723200
18138 18140 18141 1 119.8800511 375.723200
18138 18140 18142 1 120.0200517 532.790560
18141 18140 18142 1 119.8800511 375.723200
18133 18142 18140 1 120.0200517 532.790560
18133 18142 18143 1 119.8800511 375.723200
18140 18142 18143 1 119.8800511 375.723200
18135 18144 18145 1 115.00000 209.200000
18146 18147 18148 1 119.8800511 375.723200
18146 18147 18156 1 119.8800511 375.723200
18148 18147 18156 1 120.0200517 532.790560
18147 18148 18149 1 121.3800518 83.010560
18147 18148 18150 1 120.0200517 532.790560
18149 18148 18150 1 121.3800518 83.010560
1382 18149 10701 1 109.50000 418.400000
1382 18149 18148 1 103.70004 836.800000
1382 18149 18158 1 109.50000 418.400000
10701 18149 18148 1 103.70004 836.800000
10701 18149 18158 1 109.50000 418.400000
18148 18149 18158 1 103.70004 1034.033760
18148 18150 18151 1 119.8800511 375.723200
18148 18150 18152 1 120.0200517 532.790560
18151 18150 18152 1 119.8800511 375.723200
18150 18152 18153 1 119.8800511 375.723200
18150 18152 18154 1 120.0200517 532.790560
18153 18152 18154 1 119.8800511 375.723200
18152 18154 18155 1 119.8800511 375.723200
18152 18154 18156 1 120.0200517 532.790560
18155 18154 18156 1 119.8800511 375.723200
18147 18156 18154 1 120.0200517 532.790560
18147 18156 18157 1 119.8800511 375.723200
18154 18156 18157 1 119.8800511 375.723200
18149 18158 18159 1 115.00000 209.200000
18160 18161 18162 1 119.8800511 375.723200
18160 18161 18170 1 119.8800511 375.723200
18162 18161 18170 1 120.0200517 532.790560
18161 18162 18163 1 121.3800518 83.010560
18161 18162 18164 1 120.0200517 532.790560
18163 18162 18164 1 121.3800518 83.010560
2100 18163 5001 1 109.50000 418.400000
2100 18163 18162 1 103.70004 836.800000
2100 18163 18172 1 109.50000 418.400000
5001 18163 18162 1 103.70004 836.800000
5001 18163 18172 1 109.50000 418.400000
18162 18163 18172 1 103.70004 1034.033760
18162 18164 18165 1 119.8800511 375.723200
18162 18164 18166 1 120.0200517 532.790560
18165 18164 18166 1 119.8800511 375.723200
18164 18166 18167 1 119.8800511 375.723200
18164 18166 18168 1 120.0200517 532.790560
18167 18166 18168 1 119.8800511 375.723200
18166 18168 18169 1 119.8800511 375.723200
18166 18168 18170 1 120.0200517 532.790560
18169 18168 18170 1 119.8800511 375.723200
18161 18170 18168 1 120.0200517 532.790560
18161 18170 18171 1 119.8800511 375.723200
18168 18170 18171 1 119.8800511 375.723200
18163 18172 18173 1 115.00000 209.200000
18174 18175 18176 1 119.8800511 375.723200
18174 18175 18184 1 119.8800511 375.723200
18176 18175 18184 1 120.0200517 532.790560
18175 18176 18177 1 121.3800518 83.010560
18175 18176 18178 1 120.0200517 532.790560
18177 18176 18178 1 121.3800518 83.010560
1969 18177 3039 1 109.50000 418.400000
1969 18177 18176 1 103.70004 836.800000
1969 18177 18186 1 109.50000 418.400000
3039 18177 18176 1 103.70004 836.800000
3039 18177 18186 1 109.50000 418.400000
18176 18177 18186 1 103.70004 1034.033760
18176 18178 18179 1 119.8800511 375.723200
18176 18178 18180 1 120.0200517 532.790560
18179 18178 18180 1 119.8800511 375.723200
18178 18180 18181 1 119.8800511 375.723200
18178 18180 18182 1 120.0200517 532.790560
18181 18180 18182 1 119.8800511 375.723200
18180 18182 18183 1 119.8800511 375.723200
18180 18182 18184 1 120.0200517 532.790560
18183 18182 18184 1 119.8800511 375.723200
18175 18184 18182 1 120.0200517 532.790560
18175 18184 18185 1 119.8800511 375.723200
18182 18184 18185 1 119.8800511 375.723200
18177 18186 18187 1 115.00000 209.200000
18188 18189 18190 1 119.8800511 375.723200
18188 18189 18198 1 119.8800511 375.723200
18190 18189 18198 1 120.0200517 532.790560
18189 18190 18191 1 121.3800518 83.010560
18189 18190 18192 1 120.0200517 532.790560
18191 18190 18192 1 121.3800518 83.010560
6417 18191 10082 1 109.50000 418.400000
6417 18191 18190 1 103.70004 836.800000
6417 18191 18200 1 109.50000 418.400000
10082 18191 18190 1 103.70004 836.800000
10082 18191 18200 1 109.50000 418.400000
18190 18191 18200 1 103.70004 1034.033760
18190 18192 18193 1 119.8800511 375.723200
18190 18192 18194 1 120.0200517 532.790560
18193 18192 18194 1 119.8800511 375.723200
18192 18194 18195 1 119.8800511 375.723200
18192 18194 18196 1 120.0200517 532.790560
18195 18194 18196 1 119.8800511 375.723200
18194 18196 18197 1 119.8800511 375.723200
18194 18196 18198 1 120.0200517 532.790560
18197 18196 18198 1 119.8800511 375.723200
18189 18198 18196 1 120.0200517 532.790560
18189 18198 18199 1 119.8800511 375.723200
18196 18198 18199 1 119.8800511 375.723200
18191 18200 18201 1 115.00000 209.200000
18202 18203 18204 1 119.8800511 375.723200
18202 18203 18212 1 119.8800511 375.723200
18204 18203 18212 1 120.0200517 532.790560
18203 18204 18205 1 121.3800518 83.010560
18203 18204 18206 1 120.0200517 532.790560
18205 18204 18206 1 121.3800518 83.010560
9189 18205 10440 1 109.50000 418.400000
9189 18205 18204 1 103.70004 836.800000
9189 18205 18214 1 109.50000 418.400000
10440 18205 18204 1 103.70004 836.800000
10440 18205 18214 1 109.50000 418.400000
18204 18205 18214 1 103.70004 1034.033760
18204 18206 18207 1 119.8800511 375.723200
18204 18206 18208 1 120.0200517 532.790560
18207 18206 18208 1 119.8800511 375.723200
18206 18208 18209 1 119.8800511 375.723200
18206 18208 18210 1 120.0200517 532.790560
18209 18208 18210 1 119.8800511 375.723200
18208 18210 18211 1 119.8800511 375.723200
18208 18210 18212 1 120.0200517 532.790560
18211 18210 18212 1 119.8800511 375.723200
18203 18212 18210 1 120.0200517 532.790560
18203 18212 18213 1 119.8800511 375.723200
18210 18212 18213 1 119.8800511 375.723200
18205 18214 18215 1 115.00000 209.200000
18216 18217 18218 1 119.8800511 375.723200
18216 18217 18226 1 119.8800511 375.723200
18218 18217 18226 1 120.0200517 532.790560
18217 18218 18219 1 121.3800518 83.010560
18217 18218 18220 1 120.0200517 532.790560
18219 18218 18220 1 121.3800518 83.010560
1327 18219 10140 1 109.50000 418.400000
1327 18219 18218 1 103.70004 836.800000
1327 18219 18228 1 109.50000 418.400000
10140 18219 18218 1 103.70004 836.800000
10140 18219 18228 1 109.50000 418.400000
18218 18219 18228 1 103.70004 1034.033760
18218 18220 18221 1 119.8800511 375.723200
18218 18220 18222 1 120.0200517 532.790560
18221 18220 18222 1 119.8800511 375.723200
18220 18222 18223 1 119.8800511 375.723200
18220 18222 18224 1 120.0200517 532.790560
18223 18222 18224 1 119.8800511 375.723200
18222 18224 18225 1 119.8800511 375.723200
18222 18224 18226 1 120.0200517 532.790560
18225 18224 18226 1 119.8800511 375.723200
18217 18226 18224 1 120.0200517 532.790560
18217 18226 18227 1 119.8800511 375.723200
18224 18226 18227 1 119.8800511 375.723200
18219 18228 18229 1 115.00000 209.200000
18230 18231 18232 1 119.8800511 375.723200
18230 18231 18240 1 119.8800511 375.723200
18232 18231 18240 1 120.0200517 532.790560
18231 18232 18233 1 121.3800518 83.010560
18231 18232 18234 1 120.0200517 532.790560
18233 18232 18234 1 121.3800518 83.010560
1259 18233 10795 1 109.50000 418.400000
1259 18233 18232 1 103.70004 836.800000
1259 18233 18242 1 109.50000 418.400000
10795 18233 18232 1 103.70004 836.800000
10795 18233 18242 1 109.50000 418.400000
18232 18233 18242 1 103.70004 1034.033760
18232 18234 18235 1 119.8800511 375.723200
18232 18234 18236 1 120.0200517 532.790560
18235 18234 18236 1 119.8800511 375.723200
18234 18236 18237 1 119.8800511 375.723200
18234 18236 18238 1 120.0200517 532.790560
18237 18236 18238 1 119.8800511 375.723200
18236 18238 18239 1 119.8800511 375.723200
18236 18238 18240 1 120.0200517 532.790560
18239 18238 18240 1 119.8800511 375.723200
18231 18240 18238 1 120.0200517 532.790560
18231 18240 18241 1 119.8800511 375.723200
18238 18240 18241 1 119.8800511 375.723200
18233 18242 18243 1 115.00000 209.200000
18244 18245 18246 1 119.8800511 375.723200
18244 18245 18254 1 119.8800511 375.723200
18246 18245 18254 1 120.0200517 532.790560
18245 18246 18247 1 121.3800518 83.010560
18245 18246 18248 1 120.0200517 532.790560
18247 18246 18248 1 121.3800518 83.010560
6835 18247 8634 1 109.50000 418.400000
6835 18247 18246 1 103.70004 836.800000
6835 18247 18256 1 109.50000 418.400000
8634 18247 18246 1 103.70004 836.800000
8634 18247 18256 1 109.50000 418.400000
18246 18247 18256 1 103.70004 1034.033760
18246 18248 18249 1 119.8800511 375.723200
18246 18248 18250 1 120.0200517 532.790560
18249 18248 18250 1 119.8800511 375.723200
18248 18250 18251 1 119.8800511 375.723200
18248 18250 18252 1 120.0200517 532.790560
18251 18250 18252 1 119.8800511 375.723200
18250 18252 18253 1 119.8800511 375.723200
18250 18252 18254 1 120.0200517 532.790560
18253 18252 18254 1 119.8800511 375.723200
18245 18254 18252 1 120.0200517 532.790560
18245 18254 18255 1 119.8800511 375.723200
18252 18254 18255 1 119.8800511 375.723200
18247 18256 18257 1 115.00000 209.200000
18258 18259 18260 1 119.8800511 375.723200
18258 18259 18268 1 119.8800511 375.723200
18260 18259 18268 1 120.0200517 532.790560
18259 18260 18261 1 121.3800518 83.010560
18259 18260 18262 1 120.0200517 532.790560
18261 18260 18262 1 121.3800518 83.010560
8234 18261 9048 1 109.50000 418.400000
8234 18261 18260 1 103.70004 836.800000
8234 18261 18270 1 109.50000 418.400000
9048 18261 18260 1 103.70004 836.800000
9048 18261 18270 1 109.50000 418.400000
18260 18261 18270 1 103.70004 1034.033760
18260 18262 18263 1 119.8800511 375.723200
18260 18262 18264 1 120.0200517 532.790560
18263 18262 18264 1 119.8800511 375.723200
18262 18264 18265 1 119.8800511 375.723200
18262 18264 18266 1 120.0200517 532.790560
18265 18264 18266 1 119.8800511 375.723200
18264 18266 18267 1 119.8800511 375.723200
18264 18266 18268 1 120.0200517 532.790560
18267 18266 18268 1 119.8800511 375.723200
18259 18268 18266 1 120.0200517 532.790560
18259 18268 18269 1 119.8800511 375.723200
18266 18268 18269 1 119.8800511 375.723200
18261 18270 18271 1 115.00000 209.200000
18272 18273 18274 1 119.8800511 375.723200
18272 18273 18282 1 119.8800511 375.723200
18274 18273 18282 1 120.0200517 532.790560
18273 18274 18275 1 121.3800518 83.010560
18273 18274 18276 1 120.0200517 532.790560
18275 18274 18276 1 121.3800518 83.010560
441 18275 7427 1 109.50000 418.400000
441 18275 18274 1 103.70004 836.800000
441 18275 18284 1 109.50000 418.400000
7427 18275 18274 1 103.70004 836.800000
7427 18275 18284 1 109.50000 418.400000
18274 18275 18284 1 103.70004 1034.033760
18274 18276 18277 1 119.8800511 375.723200
18274 18276 18278 1 120.0200517 532.790560
18277 18276 18278 1 119.8800511 375.723200
18276 18278 18279 1 119.8800511 375.723200
18276 18278 18280 1 120.0200517 532.790560
18279 18278 18280 1 119.8800511 375.723200
18278 18280 18281 1 119.8800511 375.723200
18278 18280 18282 1 120.0200517 532.790560
18281 18280 18282 1 119.8800511 375.723200
18273 18282 18280 1 120.0200517 532.790560
18273 18282 18283 1 119.8800511 375.723200
18280 18282 18283 1 119.8800511 375.723200
18275 18284 18285 1 115.00000 209.200000
18286 18287 18288 1 119.8800511 375.723200
18286 18287 18296 1 119.8800511 375.723200
18288 18287 18296 1 120.0200517 532.790560
18287 18288 18289 1 121.3800518 83.010560
18287 18288 18290 1 120.0200517 532.790560
18289 18288 18290 1 121.3800518 83.010560
8497 18289 9348 1 109.50000 418.400000
8497 18289 18288 1 103.70004 836.800000
8497 18289 18298 1 109.50000 418.400000
9348 18289 18288 1 103.70004 836.800000
9348 18289 18298 1 109.50000 418.400000
18288 18289 18298 1 103.70004 1034.033760
18288 18290 18291 1 119.8800511 375.723200
18288 18290 18292 1 120.0200517 532.790560
18291 18290 18292 1 119.8800511 375.723200
18290 18292 18293 1 119.8800511 375.723200
18290 18292 18294 1 120.0200517 532.790560
18293 18292 18294 1 119.8800511 375.723200
18292 18294 18295 1 119.8800511 375.723200
18292 18294 18296 1 120.0200517 532.790560
18295 18294 18296 1 119.8800511 375.723200
18287 18296 18294 1 120.0200517 532.790560
18287 18296 18297 1 119.8800511 375.723200
18294 18296 18297 1 119.8800511 375.723200
18289 18298 18299 1 115.00000 209.200000
18300 18301 18302 1 119.8800511 375.723200
18300 18301 18310 1 119.8800511 375.723200
18302 18301 18310 1 120.0200517 532.790560
18301 18302 18303 1 121.3800518 83.010560
18301 18302 18304 1 120.0200517 532.790560
18303 18302 18304 1 121.3800518 83.010560
4150 18303 8405 1 109.50000 418.400000
4150 18303 18302 1 103.70004 836.800000
4150 18303 18312 1 109.50000 418.400000
8405 18303 18302 1 103.70004 836.800000
8405 18303 18312 1 109.50000 418.400000
18302 18303 18312 1 103.70004 1034.033760
18302 18304 18305 1 119.8800511 375.723200
18302 18304 18306 1 120.0200517 532.790560
18305 18304 18306 1 119.8800511 375.723200
18304 18306 18307 1 119.8800511 375.723200
18304 18306 18308 1 120.0200517 532.790560
18307 18306 18308 1 119.8800511 375.723200
18306 18308 18309 1 119.8800511 375.723200
18306 18308 18310 1 120.0200517 532.790560
18309 18308 18310 1 119.8800511 375.723200
18301 18310 18308 1 120.0200517 532.790560
18301 18310 18311 1 119.8800511 375.723200
18308 18310 18311 1 119.8800511 375.723200
18303 18312 18313 1 115.00000 209.200000
18314 18315 18316 1 119.8800511 375.723200
18314 18315 18324 1 119.8800511 375.723200
18316 18315 18324 1 120.0200517 532.790560
18315 18316 18317 1 121.3800518 83.010560
18315 18316 18318 1 120.0200517 532.790560
18317 18316 18318 1 121.3800518 83.010560
3993 18317 8879 1 109.50000 418.400000
3993 18317 18316 1 103.70004 836.800000
3993 18317 18326 1 109.50000 418.400000
8879 18317 18316 1 103.70004 836.800000
8879 18317 18326 1 109.50000 418.400000
18316 18317 18326 1 103.70004 1034.033760
18316 18318 18319 1 119.8800511 375.723200
18316 18318 18320 1 120.0200517 532.790560
18319 18318 18320 1 119.8800511 375.723200
18318 18320 18321 1 119.8800511 375.723200
18318 18320 18322 1 120.0200517 532.790560
18321 18320 18322 1 119.8800511 375.723200
18320 18322 18323 1 119.8800511 375.723200
18320 18322 18324 1 120.0200517 532.790560
18323 18322 18324 1 119.8800511 375.723200
18315 18324 18322 1 120.0200517 532.790560
18315 18324 18325 1 119.8800511 375.723200
18322 18324 18325 1 119.8800511 375.723200
18317 18326 18327 1 115.00000 209.200000
18328 18329 18330 1 119.8800511 375.723200
18328 18329 18338 1 119.8800511 375.723200
18330 18329 18338 1 120.0200517 532.790560
18329 18330 18331 1 121.3800518 83.010560
18329 18330 18332 1 120.0200517 532.790560
18331 18330 18332 1 121.3800518 83.010560
10868 18331 10869 1 109.50000 418.400000
10868 18331 18330 1 103.70004 836.800000
10868 18331 18340 1 109.50000 418.400000
10869 18331 18330 1 103.70004 836.800000
10869 18331 18340 1 109.50000 418.400000
18330 18331 18340 1 103.70004 1034.033760
18330 18332 18333 1 119.8800511 375.723200
18330 18332 18334 1 120.0200517 532.790560
18333 18332 18334 1 119.8800511 375.723200
18332 18334 18335 1 119.8800511 375.723200
18332 18334 18336 1 120.0200517 532.790560
18335 18334 18336 1 119.8800511 375.723200
18334 18336 18337 1 119.8800511 375.723200
18334 18336 18338 1 120.0200517 532.790560
18337 18336 18338 1 119.8800511 375.723200
18329 18338 18336 1 120.0200517 532.790560
18329 18338 18339 1 119.8800511 375.723200
18336 18338 18339 1 119.8800511 375.723200
18331 18340 18341 1 115.00000 209.200000
18342 18343 18344 1 119.8800511 375.723200
18342 18343 18352 1 119.8800511 375.723200
18344 18343 18352 1 120.0200517 532.790560
18343 18344 18345 1 121.3800518 83.010560
18343 18344 18346 1 120.0200517 532.790560
18345 18344 18346 1 121.3800518 83.010560
5 18345 6 1 109.50000 418.400000
5 18345 3184 1 109.50000 418.400000
5 18345 18344 1 103.70004 836.800000
6 18345 3184 1 109.50000 418.400000
6 18345 18344 1 103.70004 836.800000
3184 18345 18344 1 103.70004 836.800000
18344 18346 18347 1 119.8800511 375.723200
18344 18346 18348 1 120.0200517 532.790560
18347 18346 18348 1 119.8800511 375.723200
18346 18348 18349 1 119.8800511 375.723200
18346 18348 18350 1 120.0200517 532.790560
18349 18348 18350 1 119.8800511 375.723200
18348 18350 18351 1 119.8800511 375.723200
18348 18350 18352 1 120.0200517 532.790560
18351 18350 18352 1 119.8800511 375.723200
18343 18352 18350 1 120.0200517 532.790560
18343 18352 18353 1 119.8800511 375.723200
18350 18352 18353 1 119.8800511 375.723200
18354 18355 18356 1 119.8800511 375.723200
18354 18355 18364 1 119.8800511 375.723200
18356 18355 18364 1 120.0200517 532.790560
18355 18356 18357 1 121.3800518 83.010560
18355 18356 18358 1 120.0200517 532.790560
18357 18356 18358 1 121.3800518 83.010560
11 18357 12 1 109.50000 418.400000
11 18357 13 1 109.50000 418.400000
11 18357 18356 1 103.70004 836.800000
12 18357 13 1 109.50000 418.400000
12 18357 18356 1 103.70004 836.800000
13 18357 18356 1 103.70004 836.800000
18356 18358 18359 1 119.8800511 375.723200
18356 18358 18360 1 120.0200517 532.790560
18359 18358 18360 1 119.8800511 375.723200
18358 18360 18361 1 119.8800511 375.723200
18358 18360 18362 1 120.0200517 532.790560
18361 18360 18362 1 119.8800511 375.723200
18360 18362 18363 1 119.8800511 375.723200
18360 18362 18364 1 120.0200517 532.790560
18363 18362 18364 1 119.8800511 375.723200
18355 18364 18362 1 120.0200517 532.790560
18355 18364 18365 1 119.8800511 375.723200
18362 18364 18365 1 119.8800511 375.723200
18366 18367 18368 1 119.8800511 375.723200
18366 18367 18376 1 119.8800511 375.723200
18368 18367 18376 1 120.0200517 532.790560
18367 18368 18369 1 121.3800518 83.010560
18367 18368 18370 1 120.0200517 532.790560
18369 18368 18370 1 121.3800518 83.010560
30 18369 31 1 109.50000 418.400000
30 18369 32 1 109.50000 418.400000
30 18369 18368 1 103.70004 836.800000
31 18369 32 1 109.50000 418.400000
31 18369 18368 1 103.70004 836.800000
32 18369 18368 1 103.70004 836.800000
18368 18370 18371 1 119.8800511 375.723200
18368 18370 18372 1 120.0200517 532.790560
18371 18370 18372 1 119.8800511 375.723200
18370 18372 18373 1 119.8800511 375.723200
18370 18372 18374 1 120.0200517 532.790560
18373 18372 18374 1 119.8800511 375.723200
18372 18374 18375 1 119.8800511 375.723200
18372 18374 18376 1 120.0200517 532.790560
18375 18374 18376 1 119.8800511 375.723200
18367 18376 18374 1 120.0200517 532.790560
18367 18376 18377 1 119.8800511 375.723200
18374 18376 18377 1 119.8800511 375.723200
18378 18379 18380 1 119.8800511 375.723200
18378 18379 18388 1 119.8800511 375.723200
18380 18379 18388 1 120.0200517 532.790560
18379 18380 18381 1 121.3800518 83.010560
18379 18380 18382 1 120.0200517 532.790560
18381 18380 18382 1 121.3800518 83.010560
68 18381 69 1 109.50000 418.400000
68 18381 11138 1 109.50000 418.400000
68 18381 18380 1 103.70004 836.800000
69 18381 11138 1 109.50000 418.400000
69 18381 18380 1 103.70004 836.800000
11138 18381 18380 1 103.70004 836.800000
18380 18382 18383 1 119.8800511 375.723200
18380 18382 18384 1 120.0200517 532.790560
18383 18382 18384 1 119.8800511 375.723200
18382 18384 18385 1 119.8800511 375.723200
18382 18384 18386 1 120.0200517 532.790560
18385 18384 18386 1 119.8800511 375.723200
18384 18386 18387 1 119.8800511 375.723200
18384 18386 18388 1 120.0200517 532.790560
18387 18386 18388 1 119.8800511 375.723200
18379 18388 18386 1 120.0200517 532.790560
18379 18388 18389 1 119.8800511 375.723200
18386 18388 18389 1 119.8800511 375.723200
18390 18391 18392 1 119.8800511 375.723200
18390 18391 18400 1 119.8800511 375.723200
18392 18391 18400 1 120.0200517 532.790560
18391 18392 18393 1 121.3800518 83.010560
18391 18392 18394 1 120.0200517 532.790560
18393 18392 18394 1 121.3800518 83.010560
90 18393 91 1 109.50000 418.400000
90 18393 92 1 109.50000 418.400000
90 18393 18392 1 103.70004 836.800000
91 18393 92 1 109.50000 418.400000
91 18393 18392 1 103.70004 836.800000
92 18393 18392 1 103.70004 836.800000
18392 18394 18395 1 119.8800511 375.723200
18392 18394 18396 1 120.0200517 532.790560
18395 18394 18396 1 119.8800511 375.723200
18394 18396 18397 1 119.8800511 375.723200
18394 18396 18398 1 120.0200517 532.790560
18397 18396 18398 1 119.8800511 375.723200
18396 18398 18399 1 119.8800511 375.723200
18396 18398 18400 1 120.0200517 532.790560
18399 18398 18400 1 119.8800511 375.723200
18391 18400 18398 1 120.0200517 532.790560
18391 18400 18401 1 119.8800511 375.723200
18398 18400 18401 1 119.8800511 375.723200
18402 18403 18404 1 119.8800511 375.723200
18402 18403 18412 1 119.8800511 375.723200
18404 18403 18412 1 120.0200517 532.790560
18403 18404 18405 1 121.3800518 83.010560
18403 18404 18406 1 120.0200517 532.790560
18405 18404 18406 1 121.3800518 83.010560
123 18405 124 1 109.50000 418.400000
123 18405 125 1 109.50000 418.400000
123 18405 18404 1 103.70004 836.800000
124 18405 125 1 109.50000 418.400000
124 18405 18404 1 103.70004 836.800000
125 18405 18404 1 103.70004 836.800000
18404 18406 18407 1 119.8800511 375.723200
18404 18406 18408 1 120.0200517 532.790560
18407 18406 18408 1 119.8800511 375.723200
18406 18408 18409 1 119.8800511 375.723200
18406 18408 18410 1 120.0200517 532.790560
18409 18408 18410 1 119.8800511 375.723200
18408 18410 18411 1 119.8800511 375.723200
18408 18410 18412 1 120.0200517 532.790560
18411 18410 18412 1 119.8800511 375.723200
18403 18412 18410 1 120.0200517 532.790560
18403 18412 18413 1 119.8800511 375.723200
18410 18412 18413 1 119.8800511 375.723200
18414 18415 18416 1 119.8800511 375.723200
18414 18415 18424 1 119.8800511 375.723200
18416 18415 18424 1 120.0200517 532.790560
18415 18416 18417 1 121.3800518 83.010560
18415 18416 18418 1 120.0200517 532.790560
18417 18416 18418 1 121.3800518 83.010560
137 18417 138 1 109.50000 418.400000
137 18417 139 1 109.50000 418.400000
137 18417 18416 1 103.70004 836.800000
138 18417 139 1 109.50000 418.400000
138 18417 18416 1 103.70004 836.800000
139 18417 18416 1 103.70004 836.800000
18416 18418 18419 1 119.8800511 375.723200
18416 18418 18420 1 120.0200517 532.790560
18419 18418 18420 1 119.8800511 375.723200
18418 18420 18421 1 119.8800511 375.723200
18418 18420 18422 1 120.0200517 532.790560
18421 18420 18422 1 119.8800511 375.723200
18420 18422 18423 1 119.8800511 375.723200
18420 18422 18424 1 120.0200517 532.790560
18423 18422 18424 1 119.8800511 375.723200
18415 18424 18422 1 120.0200517 532.790560
18415 18424 18425 1 119.8800511 375.723200
18422 18424 18425 1 119.8800511 375.723200
18426 18427 18428 1 119.8800511 375.723200
18426 18427 18436 1 119.8800511 375.723200
18428 18427 18436 1 120.0200517 532.790560
18427 18428 18429 1 121.3800518 83.010560
18427 18428 18430 1 120.0200517 532.790560
18429 18428 18430 1 121.3800518 83.010560
178 18429 179 1 109.50000 418.400000
178 18429 11139 1 109.50000 418.400000
178 18429 18428 1 103.70004 836.800000
179 18429 11139 1 109.50000 418.400000
179 18429 18428 1 103.70004 836.800000
11139 18429 18428 1 103.70004 836.800000
18428 18430 18431 1 119.8800511 375.723200
18428 18430 18432 1 120.0200517 532.790560
18431 18430 18432 1 119.8800511 375.723200
18430 18432 18433 1 119.8800511 375.723200
18430 18432 18434 1 120.0200517 532.790560
18433 18432 18434 1 119.8800511 375.723200
18432 18434 18435 1 119.8800511 375.723200
18432 18434 18436 1 120.0200517 532.790560
18435 18434 18436 1 119.8800511 375.723200
18427 18436 18434 1 120.0200517 532.790560
18427 18436 18437 1 119.8800511 375.723200
18434 18436 18437 1 119.8800511 375.723200
18438 18439 18440 1 119.8800511 375.723200
18438 18439 18448 1 119.8800511 375.723200
18440 18439 18448 1 120.0200517 532.790560
18439 18440 18441 1 121.3800518 83.010560
18439 18440 18442 1 120.0200517 532.790560
18441 18440 18442 1 121.3800518 83.010560
192 18441 1858 1 109.50000 418.400000
192 18441 11140 1 109.50000 418.400000
192 18441 18440 1 103.70004 836.800000
1858 18441 11140 1 109.50000 418.400000
1858 18441 18440 1 103.70004 836.800000
11140 18441 18440 1 103.70004 836.800000
18440 18442 18443 1 119.8800511 375.723200
18440 18442 18444 1 120.0200517 532.790560
18443 18442 18444 1 119.8800511 375.723200
18442 18444 18445 1 119.8800511 375.723200
18442 18444 18446 1 120.0200517 532.790560
18445 18444 18446 1 119.8800511 375.723200
18444 18446 18447 1 119.8800511 375.723200
18444 18446 18448 1 120.0200517 532.790560
18447 18446 18448 1 119.8800511 375.723200
18439 18448 18446 1 120.0200517 532.790560
18439 18448 18449 1 119.8800511 375.723200
18446 18448 18449 1 119.8800511 375.723200
18450 18451 18452 1 119.8800511 375.723200
18450 18451 18460 1 119.8800511 375.723200
18452 18451 18460 1 120.0200517 532.790560
18451 18452 18453 1 121.3800518 83.010560
18451 18452 18454 1 120.0200517 532.790560
18453 18452 18454 1 121.3800518 83.010560
221 18453 222 1 109.50000 418.400000
221 18453 223 1 109.50000 418.400000
221 18453 18452 1 103.70004 836.800000
222 18453 223 1 109.50000 418.400000
222 18453 18452 1 103.70004 836.800000
223 18453 18452 1 103.70004 836.800000
18452 18454 18455 1 119.8800511 375.723200
18452 18454 18456 1 120.0200517 532.790560
18455 18454 18456 1 119.8800511 375.723200
18454 18456 18457 1 119.8800511 375.723200
18454 18456 18458 1 120.0200517 532.790560
18457 18456 18458 1 119.8800511 375.723200
18456 18458 18459 1 119.8800511 375.723200
18456 18458 18460 1 120.0200517 532.790560
18459 18458 18460 1 119.8800511 375.723200
18451 18460 18458 1 120.0200517 532.790560
18451 18460 18461 1 119.8800511 375.723200
18458 18460 18461 1 119.8800511 375.723200
18462 18463 18464 1 119.8800511 375.723200
18462 18463 18472 1 119.8800511 375.723200
18464 18463 18472 1 120.0200517 532.790560
18463 18464 18465 1 121.3800518 83.010560
18463 18464 18466 1 120.0200517 532.790560
18465 18464 18466 1 121.3800518 83.010560
232 18465 233 1 109.50000 418.400000
232 18465 234 1 109.50000 418.400000
232 18465 18464 1 103.70004 836.800000
233 18465 234 1 109.50000 418.400000
233 18465 18464 1 103.70004 836.800000
234 18465 18464 1 103.70004 836.800000
18464 18466 18467 1 119.8800511 375.723200
18464 18466 18468 1 120.0200517 532.790560
18467 18466 18468 1 119.8800511 375.723200
18466 18468 18469 1 119.8800511 375.723200
18466 18468 18470 1 120.0200517 532.790560
18469 18468 18470 1 119.8800511 375.723200
18468 18470 18471 1 119.8800511 375.723200
18468 18470 18472 1 120.0200517 532.790560
18471 18470 18472 1 119.8800511 375.723200
18463 18472 18470 1 120.0200517 532.790560
18463 18472 18473 1 119.8800511 375.723200
18470 18472 18473 1 119.8800511 375.723200
18474 18475 18476 1 119.8800511 375.723200
18474 18475 18484 1 119.8800511 375.723200
18476 18475 18484 1 120.0200517 532.790560
18475 18476 18477 1 121.3800518 83.010560
18475 18476 18478 1 120.0200517 532.790560
18477 18476 18478 1 121.3800518 83.010560
239 18477 240 1 109.50000 418.400000
239 18477 241 1 109.50000 418.400000
239 18477 18476 1 103.70004 836.800000
240 18477 241 1 109.50000 418.400000
240 18477 18476 1 103.70004 836.800000
241 18477 18476 1 103.70004 836.800000
18476 18478 18479 1 119.8800511 375.723200
18476 18478 18480 1 120.0200517 532.790560
18479 18478 18480 1 119.8800511 375.723200
18478 18480 18481 1 119.8800511 375.723200
18478 18480 18482 1 120.0200517 532.790560
18481 18480 18482 1 119.8800511 375.723200
18480 18482 18483 1 119.8800511 375.723200
18480 18482 18484 1 120.0200517 532.790560
18483 18482 18484 1 119.8800511 375.723200
18475 18484 18482 1 120.0200517 532.790560
18475 18484 18485 1 119.8800511 375.723200
18482 18484 18485 1 119.8800511 375.723200
18486 18487 18488 1 119.8800511 375.723200
18486 18487 18496 1 119.8800511 375.723200
18488 18487 18496 1 120.0200517 532.790560
18487 18488 18489 1 121.3800518 83.010560
18487 18488 18490 1 120.0200517 532.790560
18489 18488 18490 1 121.3800518 83.010560
242 18489 243 1 109.50000 418.400000
242 18489 244 1 109.50000 418.400000
242 18489 18488 1 103.70004 836.800000
243 18489 244 1 109.50000 418.400000
243 18489 18488 1 103.70004 836.800000
244 18489 18488 1 103.70004 836.800000
18488 18490 18491 1 119.8800511 375.723200
18488 18490 18492 1 120.0200517 532.790560
18491 18490 18492 1 119.8800511 375.723200
18490 18492 18493 1 119.8800511 375.723200
18490 18492 18494 1 120.0200517 532.790560
18493 18492 18494 1 119.8800511 375.723200
18492 18494 18495 1 119.8800511 375.723200
18492 18494 18496 1 120.0200517 532.790560
18495 18494 18496 1 119.8800511 375.723200
18487 18496 18494 1 120.0200517 532.790560
18487 18496 18497 1 119.8800511 375.723200
18494 18496 18497 1 119.8800511 375.723200
18498 18499 18500 1 119.8800511 375.723200
18498 18499 18508 1 119.8800511 375.723200
18500 18499 18508 1 120.0200517 532.790560
18499 18500 18501 1 121.3800518 83.010560
18499 18500 18502 1 120.0200517 532.790560
18501 18500 18502 1 121.3800518 83.010560
245 18501 9797 1 109.50000 418.400000
245 18501 11141 1 109.50000 418.400000
245 18501 18500 1 103.70004 836.800000
9797 18501 11141 1 109.50000 418.400000
9797 18501 18500 1 103.70004 836.800000
11141 18501 18500 1 103.70004 836.800000
18500 18502 18503 1 119.8800511 375.723200
18500 18502 18504 1 120.0200517 532.790560
18503 18502 18504 1 119.8800511 375.723200
18502 18504 18505 1 119.8800511 375.723200
18502 18504 18506 1 120.0200517 532.790560
18505 18504 18506 1 119.8800511 375.723200
18504 18506 18507 1 119.8800511 375.723200
18504 18506 18508 1 120.0200517 532.790560
18507 18506 18508 1 119.8800511 375.723200
18499 18508 18506 1 120.0200517 532.790560
18499 18508 18509 1 119.8800511 375.723200
18506 18508 18509 1 119.8800511 375.723200
18510 18511 18512 1 119.8800511 375.723200
18510 18511 18520 1 119.8800511 375.723200
18512 18511 18520 1 120.0200517 532.790560
18511 18512 18513 1 121.3800518 83.010560
18511 18512 18514 1 120.0200517 532.790560
18513 18512 18514 1 121.3800518 83.010560
254 18513 255 1 109.50000 418.400000
254 18513 11142 1 109.50000 418.400000
254 18513 18512 1 103.70004 836.800000
255 18513 11142 1 109.50000 418.400000
255 18513 18512 1 103.70004 836.800000
11142 18513 18512 1 103.70004 836.800000
18512 18514 18515 1 119.8800511 375.723200
18512 18514 18516 1 120.0200517 532.790560
18515 18514 18516 1 119.8800511 375.723200
18514 18516 18517 1 119.8800511 375.723200
18514 18516 18518 1 120.0200517 532.790560
18517 18516 18518 1 119.8800511 375.723200
18516 18518 18519 1 119.8800511 375.723200
18516 18518 18520 1 120.0200517 532.790560
18519 18518 18520 1 119.8800511 375.723200
18511 18520 18518 1 120.0200517 532.790560
18511 18520 18521 1 119.8800511 375.723200
18518 18520 18521 1 119.8800511 375.723200
18522 18523 18524 1 119.8800511 375.723200
18522 18523 18532 1 119.8800511 375.723200
18524 18523 18532 1 120.0200517 532.790560
18523 18524 18525 1 121.3800518 83.010560
18523 18524 18526 1 120.0200517 532.790560
18525 18524 18526 1 121.3800518 83.010560
272 18525 273 1 109.50000 418.400000
272 18525 274 1 109.50000 418.400000
272 18525 18524 1 103.70004 836.800000
273 18525 274 1 109.50000 418.400000
273 18525 18524 1 103.70004 836.800000
274 18525 18524 1 103.70004 836.800000
18524 18526 18527 1 119.8800511 375.723200
18524 18526 18528 1 120.0200517 532.790560
18527 18526 18528 1 119.8800511 375.723200
18526 18528 18529 1 119.8800511 375.723200
18526 18528 18530 1 120.0200517 532.790560
18529 18528 18530 1 119.8800511 375.723200
18528 18530 18531 1 119.8800511 375.723200
18528 18530 18532 1 120.0200517 532.790560
18531 18530 18532 1 119.8800511 375.723200
18523 18532 18530 1 120.0200517 532.790560
18523 18532 18533 1 119.8800511 375.723200
18530 18532 18533 1 119.8800511 375.723200
18534 18535 18536 1 119.8800511 375.723200
18534 18535 18544 1 119.8800511 375.723200
18536 18535 18544 1 120.0200517 532.790560
18535 18536 18537 1 121.3800518 83.010560
18535 18536 18538 1 120.0200517 532.790560
18537 18536 18538 1 121.3800518 83.010560
283 18537 284 1 109.50000 418.400000
283 18537 285 1 109.50000 418.400000
283 18537 18536 1 103.70004 836.800000
284 18537 285 1 109.50000 418.400000
284 18537 18536 1 103.70004 836.800000
285 18537 18536 1 103.70004 836.800000
18536 18538 18539 1 119.8800511 375.723200
18536 18538 18540 1 120.0200517 532.790560
18539 18538 18540 1 119.8800511 375.723200
18538 18540 18541 1 119.8800511 375.723200
18538 18540 18542 1 120.0200517 532.790560
18541 18540 18542 1 119.8800511 375.723200
18540 18542 18543 1 119.8800511 375.723200
18540 18542 18544 1 120.0200517 532.790560
18543 18542 18544 1 119.8800511 375.723200
18535 18544 18542 1 120.0200517 532.790560
18535 18544 18545 1 119.8800511 375.723200
18542 18544 18545 1 119.8800511 375.723200
18546 18547 18548 1 119.8800511 375.723200
18546 18547 18556 1 119.8800511 375.723200
18548 18547 18556 1 120.0200517 532.790560
18547 18548 18549 1 121.3800518 83.010560
18547 18548 18550 1 120.0200517 532.790560
18549 18548 18550 1 121.3800518 83.010560
263 18549 314 1 109.50000 418.400000
263 18549 315 1 109.50000 418.400000
263 18549 18548 1 103.70004 836.800000
314 18549 315 1 109.50000 418.400000
314 18549 18548 1 103.70004 836.800000
315 18549 18548 1 103.70004 836.800000
18548 18550 18551 1 119.8800511 375.723200
18548 18550 18552 1 120.0200517 532.790560
18551 18550 18552 1 119.8800511 375.723200
18550 18552 18553 1 119.8800511 375.723200
18550 18552 18554 1 120.0200517 532.790560
18553 18552 18554 1 119.8800511 375.723200
18552 18554 18555 1 119.8800511 375.723200
18552 18554 18556 1 120.0200517 532.790560
18555 18554 18556 1 119.8800511 375.723200
18547 18556 18554 1 120.0200517 532.790560
18547 18556 18557 1 119.8800511 375.723200
18554 18556 18557 1 119.8800511 375.723200
18558 18559 18560 1 119.8800511 375.723200
18558 18559 18568 1 119.8800511 375.723200
18560 18559 18568 1 120.0200517 532.790560
18559 18560 18561 1 121.3800518 83.010560
18559 18560 18562 1 120.0200517 532.790560
18561 18560 18562 1 121.3800518 83.010560
350 18561 351 1 109.50000 418.400000
350 18561 6650 1 109.50000 418.400000
350 18561 18560 1 103.70004 836.800000
351 18561 6650 1 109.50000 418.400000
351 18561 18560 1 103.70004 836.800000
6650 18561 18560 1 103.70004 836.800000
18560 18562 18563 1 119.8800511 375.723200
18560 18562 18564 1 120.0200517 532.790560
18563 18562 18564 1 119.8800511 375.723200
18562 18564 18565 1 119.8800511 375.723200
18562 18564 18566 1 120.0200517 532.790560
18565 18564 18566 1 119.8800511 375.723200
18564 18566 18567 1 119.8800511 375.723200
18564 18566 18568 1 120.0200517 532.790560
18567 18566 18568 1 119.8800511 375.723200
18559 18568 18566 1 120.0200517 532.790560
18559 18568 18569 1 119.8800511 375.723200
18566 18568 18569 1 119.8800511 375.723200
18570 18571 18572 1 119.8800511 375.723200
18570 18571 18580 1 119.8800511 375.723200
18572 18571 18580 1 120.0200517 532.790560
18571 18572 18573 1 121.3800518 83.010560
18571 18572 18574 1 120.0200517 532.790560
18573 18572 18574 1 121.3800518 83.010560
369 18573 8212 1 109.50000 418.400000
369 18573 9394 1 109.50000 418.400000
369 18573 18572 1 103.70004 836.800000
8212 18573 9394 1 109.50000 418.400000
8212 18573 18572 1 103.70004 836.800000
9394 18573 18572 1 103.70004 836.800000
18572 18574 18575 1 119.8800511 375.723200
18572 18574 18576 1 120.0200517 532.790560
18575 18574 18576 1 119.8800511 375.723200
18574 18576 18577 1 119.8800511 375.723200
18574 18576 18578 1 120.0200517 532.790560
18577 18576 18578 1 119.8800511 375.723200
18576 18578 18579 1 119.8800511 375.723200
18576 18578 18580 1 120.0200517 532.790560
18579 18578 18580 1 119.8800511 375.723200
18571 18580 18578 1 120.0200517 532.790560
18571 18580 18581 1 119.8800511 375.723200
18578 18580 18581 1 119.8800511 375.723200
18582 18583 18584 1 119.8800511 375.723200
18582 18583 18592 1 119.8800511 375.723200
18584 18583 18592 1 120.0200517 532.790560
18583 18584 18585 1 121.3800518 83.010560
18583 18584 18586 1 120.0200517 532.790560
18585 18584 18586 1 121.3800518 83.010560
395 18585 396 1 109.50000 418.400000
395 18585 11168 1 109.50000 418.400000
395 18585 18584 1 103.70004 836.800000
396 18585 11168 1 109.50000 418.400000
396 18585 18584 1 103.70004 836.800000
11168 18585 18584 1 103.70004 836.800000
18584 18586 18587 1 119.8800511 375.723200
18584 18586 18588 1 120.0200517 532.790560
18587 18586 18588 1 119.8800511 375.723200
18586 18588 18589 1 119.8800511 375.723200
18586 18588 18590 1 120.0200517 532.790560
18589 18588 18590 1 119.8800511 375.723200
18588 18590 18591 1 119.8800511 375.723200
18588 18590 18592 1 120.0200517 532.790560
18591 18590 18592 1 119.8800511 375.723200
18583 18592 18590 1 120.0200517 532.790560
18583 18592 18593 1 119.8800511 375.723200
18590 18592 18593 1 119.8800511 375.723200
18594 18595 18596 1 119.8800511 375.723200
18594 18595 18604 1 119.8800511 375.723200
18596 18595 18604 1 120.0200517 532.790560
18595 18596 18597 1 121.3800518 83.010560
18595 18596 18598 1 120.0200517 532.790560
18597 18596 18598 1 121.3800518 83.010560
417 18597 418 1 109.50000 418.400000
417 18597 419 1 109.50000 418.400000
417 18597 18596 1 103.70004 836.800000
418 18597 419 1 109.50000 418.400000
418 18597 18596 1 103.70004 836.800000
419 18597 18596 1 103.70004 836.800000
18596 18598 18599 1 119.8800511 375.723200
18596 18598 18600 1 120.0200517 532.790560
18599 18598 18600 1 119.8800511 375.723200
18598 18600 18601 1 119.8800511 375.723200
18598 18600 18602 1 120.0200517 532.790560
18601 18600 18602 1 119.8800511 375.723200
18600 18602 18603 1 119.8800511 375.723200
18600 18602 18604 1 120.0200517 532.790560
18603 18602 18604 1 119.8800511 375.723200
18595 18604 18602 1 120.0200517 532.790560
18595 18604 18605 1 119.8800511 375.723200
18602 18604 18605 1 119.8800511 375.723200
18606 18607 18608 1 119.8800511 375.723200
18606 18607 18616 1 119.8800511 375.723200
18608 18607 18616 1 120.0200517 532.790560
18607 18608 18609 1 121.3800518 83.010560
18607 18608 18610 1 120.0200517 532.790560
18609 18608 18610 1 121.3800518 83.010560
439 18609 440 1 109.50000 418.400000
439 18609 11143 1 109.50000 418.400000
439 18609 18608 1 103.70004 836.800000
440 18609 11143 1 109.50000 418.400000
440 18609 18608 1 103.70004 836.800000
11143 18609 18608 1 103.70004 836.800000
18608 18610 18611 1 119.8800511 375.723200
18608 18610 18612 1 120.0200517 532.790560
18611 18610 18612 1 119.8800511 375.723200
18610 18612 18613 1 119.8800511 375.723200
18610 18612 18614 1 120.0200517 532.790560
18613 18612 18614 1 119.8800511 375.723200
18612 18614 18615 1 119.8800511 375.723200
18612 18614 18616 1 120.0200517 532.790560
18615 18614 18616 1 119.8800511 375.723200
18607 18616 18614 1 120.0200517 532.790560
18607 18616 18617 1 119.8800511 375.723200
18614 18616 18617 1 119.8800511 375.723200
18618 18619 18620 1 119.8800511 375.723200
18618 18619 18628 1 119.8800511 375.723200
18620 18619 18628 1 120.0200517 532.790560
18619 18620 18621 1 121.3800518 83.010560
18619 18620 18622 1 120.0200517 532.790560
18621 18620 18622 1 121.3800518 83.010560
449 18621 450 1 109.50000 418.400000
449 18621 11144 1 109.50000 418.400000
449 18621 18620 1 103.70004 836.800000
450 18621 11144 1 109.50000 418.400000
450 18621 18620 1 103.70004 836.800000
11144 18621 18620 1 103.70004 836.800000
18620 18622 18623 1 119.8800511 375.723200
18620 18622 18624 1 120.0200517 532.790560
18623 18622 18624 1 119.8800511 375.723200
18622 18624 18625 1 119.8800511 375.723200
18622 18624 18626 1 120.0200517 532.790560
18625 18624 18626 1 119.8800511 375.723200
18624 18626 18627 1 119.8800511 375.723200
18624 18626 18628 1 120.0200517 532.790560
18627 18626 18628 1 119.8800511 375.723200
18619 18628 18626 1 120.0200517 532.790560
18619 18628 18629 1 119.8800511 375.723200
18626 18628 18629 1 119.8800511 375.723200
18630 18631 18632 1 119.8800511 375.723200
18630 18631 18640 1 119.8800511 375.723200
18632 18631 18640 1 120.0200517 532.790560
18631 18632 18633 1 121.3800518 83.010560
18631 18632 18634 1 120.0200517 532.790560
18633 18632 18634 1 121.3800518 83.010560
459 18633 460 1 109.50000 418.400000
459 18633 11145 1 109.50000 418.400000
459 18633 18632 1 103.70004 836.800000
460 18633 11145 1 109.50000 418.400000
460 18633 18632 1 103.70004 836.800000
11145 18633 18632 1 103.70004 836.800000
18632 18634 18635 1 119.8800511 375.723200
18632 18634 18636 1 120.0200517 532.790560
18635 18634 18636 1 119.8800511 375.723200
18634 18636 18637 1 119.8800511 375.723200
18634 18636 18638 1 120.0200517 532.790560
18637 18636 18638 1 119.8800511 375.723200
18636 18638 18639 1 119.8800511 375.723200
18636 18638 18640 1 120.0200517 532.790560
18639 18638 18640 1 119.8800511 375.723200
18631 18640 18638 1 120.0200517 532.790560
18631 18640 18641 1 119.8800511 375.723200
18638 18640 18641 1 119.8800511 375.723200
18642 18643 18644 1 119.8800511 375.723200
18642 18643 18652 1 119.8800511 375.723200
18644 18643 18652 1 120.0200517 532.790560
18643 18644 18645 1 121.3800518 83.010560
18643 18644 18646 1 120.0200517 532.790560
18645 18644 18646 1 121.3800518 83.010560
473 18645 474 1 109.50000 418.400000
473 18645 11146 1 109.50000 418.400000
473 18645 18644 1 103.70004 836.800000
474 18645 11146 1 109.50000 418.400000
474 18645 18644 1 103.70004 836.800000
11146 18645 18644 1 103.70004 836.800000
18644 18646 18647 1 119.8800511 375.723200
18644 18646 18648 1 120.0200517 532.790560
18647 18646 18648 1 119.8800511 375.723200
18646 18648 18649 1 119.8800511 375.723200
18646 18648 18650 1 120.0200517 532.790560
18649 18648 18650 1 119.8800511 375.723200
18648 18650 18651 1 119.8800511 375.723200
18648 18650 18652 1 120.0200517 532.790560
18651 18650 18652 1 119.8800511 375.723200
18643 18652 18650 1 120.0200517 532.790560
18643 18652 18653 1 119.8800511 375.723200
18650 18652 18653 1 119.8800511 375.723200
18654 18655 18656 1 119.8800511 375.723200
18654 18655 18664 1 119.8800511 375.723200
18656 18655 18664 1 120.0200517 532.790560
18655 18656 18657 1 121.3800518 83.010560
18655 18656 18658 1 120.0200517 532.790560
18657 18656 18658 1 121.3800518 83.010560
515 18657 516 1 109.50000 418.400000
515 18657 517 1 109.50000 418.400000
515 18657 18656 1 103.70004 836.800000
516 18657 517 1 109.50000 418.400000
516 18657 18656 1 103.70004 836.800000
517 18657 18656 1 103.70004 836.800000
18656 18658 18659 1 119.8800511 375.723200
18656 18658 18660 1 120.0200517 532.790560
18659 18658 18660 1 119.8800511 375.723200
18658 18660 18661 1 119.8800511 375.723200
18658 18660 18662 1 120.0200517 532.790560
18661 18660 18662 1 119.8800511 375.723200
18660 18662 18663 1 119.8800511 375.723200
18660 18662 18664 1 120.0200517 532.790560
18663 18662 18664 1 119.8800511 375.723200
18655 18664 18662 1 120.0200517 532.790560
18655 18664 18665 1 119.8800511 375.723200
18662 18664 18665 1 119.8800511 375.723200
18666 18667 18668 1 119.8800511 375.723200
18666 18667 18676 1 119.8800511 375.723200
18668 18667 18676 1 120.0200517 532.790560
18667 18668 18669 1 121.3800518 83.010560
18667 18668 18670 1 120.0200517 532.790560
18669 18668 18670 1 121.3800518 83.010560
518 18669 519 1 109.50000 418.400000
518 18669 520 1 109.50000 418.400000
518 18669 18668 1 103.70004 836.800000
519 18669 520 1 109.50000 418.400000
519 18669 18668 1 103.70004 836.800000
520 18669 18668 1 103.70004 836.800000
18668 18670 18671 1 119.8800511 375.723200
18668 18670 18672 1 120.0200517 532.790560
18671 18670 18672 1 119.8800511 375.723200
18670 18672 18673 1 119.8800511 375.723200
18670 18672 18674 1 120.0200517 532.790560
18673 18672 18674 1 119.8800511 375.723200
18672 18674 18675 1 119.8800511 375.723200
18672 18674 18676 1 120.0200517 532.790560
18675 18674 18676 1 119.8800511 375.723200
18667 18676 18674 1 120.0200517 532.790560
18667 18676 18677 1 119.8800511 375.723200
18674 18676 18677 1 119.8800511 375.723200
18678 18679 18680 1 119.8800511 375.723200
18678 18679 18688 1 119.8800511 375.723200
18680 18679 18688 1 120.0200517 532.790560
18679 18680 18681 1 121.3800518 83.010560
18679 18680 18682 1 120.0200517 532.790560
18681 18680 18682 1 121.3800518 83.010560
556 18681 557 1 109.50000 418.400000
556 18681 558 1 109.50000 418.400000
556 18681 18680 1 103.70004 836.800000
557 18681 558 1 109.50000 418.400000
557 18681 18680 1 103.70004 836.800000
558 18681 18680 1 103.70004 836.800000
18680 18682 18683 1 119.8800511 375.723200
18680 18682 18684 1 120.0200517 532.790560
18683 18682 18684 1 119.8800511 375.723200
18682 18684 18685 1 119.8800511 375.723200
18682 18684 18686 1 120.0200517 532.790560
18685 18684 18686 1 119.8800511 375.723200
18684 18686 18687 1 119.8800511 375.723200
18684 18686 18688 1 120.0200517 532.790560
18687 18686 18688 1 119.8800511 375.723200
18679 18688 18686 1 120.0200517 532.790560
18679 18688 18689 1 119.8800511 375.723200
18686 18688 18689 1 119.8800511 375.723200
18690 18691 18692 1 119.8800511 375.723200
18690 18691 18700 1 119.8800511 375.723200
18692 18691 18700 1 120.0200517 532.790560
18691 18692 18693 1 121.3800518 83.010560
18691 18692 18694 1 120.0200517 532.790560
18693 18692 18694 1 121.3800518 83.010560
137 18693 578 1 109.50000 418.400000
137 18693 579 1 109.50000 418.400000
137 18693 18692 1 103.70004 836.800000
578 18693 579 1 109.50000 418.400000
578 18693 18692 1 103.70004 836.800000
579 18693 18692 1 103.70004 836.800000
18692 18694 18695 1 119.8800511 375.723200
18692 18694 18696 1 120.0200517 532.790560
18695 18694 18696 1 119.8800511 375.723200
18694 18696 18697 1 119.8800511 375.723200
18694 18696 18698 1 120.0200517 532.790560
18697 18696 18698 1 119.8800511 375.723200
18696 18698 18699 1 119.8800511 375.723200
18696 18698 18700 1 120.0200517 532.790560
18699 18698 18700 1 119.8800511 375.723200
18691 18700 18698 1 120.0200517 532.790560
18691 18700 18701 1 119.8800511 375.723200
18698 18700 18701 1 119.8800511 375.723200
18702 18703 18704 1 119.8800511 375.723200
18702 18703 18712 1 119.8800511 375.723200
18704 18703 18712 1 120.0200517 532.790560
18703 18704 18705 1 121.3800518 83.010560
18703 18704 18706 1 120.0200517 532.790560
18705 18704 18706 1 121.3800518 83.010560
583 18705 584 1 109.50000 418.400000
583 18705 11169 1 109.50000 418.400000
583 18705 18704 1 103.70004 836.800000
584 18705 11169 1 109.50000 418.400000
584 18705 18704 1 103.70004 836.800000
11169 18705 18704 1 103.70004 836.800000
18704 18706 18707 1 119.8800511 375.723200
18704 18706 18708 1 120.0200517 532.790560
18707 18706 18708 1 119.8800511 375.723200
18706 18708 18709 1 119.8800511 375.723200
18706 18708 18710 1 120.0200517 532.790560
18709 18708 18710 1 119.8800511 375.723200
18708 18710 18711 1 119.8800511 375.723200
18708 18710 18712 1 120.0200517 532.790560
18711 18710 18712 1 119.8800511 375.723200
18703 18712 18710 1 120.0200517 532.790560
18703 18712 18713 1 119.8800511 375.723200
18710 18712 18713 1 119.8800511 375.723200
18714 18715 18716 1 119.8800511 375.723200
18714 18715 18724 1 119.8800511 375.723200
18716 18715 18724 1 120.0200517 532.790560
18715 18716 18717 1 121.3800518 83.010560
18715 18716 18718 1 120.0200517 532.790560
18717 18716 18718 1 121.3800518 83.010560
601 18717 602 1 109.50000 418.400000
601 18717 603 1 109.50000 418.400000
601 18717 18716 1 103.70004 836.800000
602 18717 603 1 109.50000 418.400000
602 18717 18716 1 103.70004 836.800000
603 18717 18716 1 103.70004 836.800000
18716 18718 18719 1 119.8800511 375.723200
18716 18718 18720 1 120.0200517 532.790560
18719 18718 18720 1 119.8800511 375.723200
18718 18720 18721 1 119.8800511 375.723200
18718 18720 18722 1 120.0200517 532.790560
18721 18720 18722 1 119.8800511 375.723200
18720 18722 18723 1 119.8800511 375.723200
18720 18722 18724 1 120.0200517 532.790560
18723 18722 18724 1 119.8800511 375.723200
18715 18724 18722 1 120.0200517 532.790560
18715 18724 18725 1 119.8800511 375.723200
18722 18724 18725 1 119.8800511 375.723200
18726 18727 18728 1 119.8800511 375.723200
18726 18727 18736 1 119.8800511 375.723200
18728 18727 18736 1 120.0200517 532.790560
18727 18728 18729 1 121.3800518 83.010560
18727 18728 18730 1 120.0200517 532.790560
18729 18728 18730 1 121.3800518 83.010560
619 18729 620 1 109.50000 418.400000
619 18729 621 1 109.50000 418.400000
619 18729 18728 1 103.70004 836.800000
620 18729 621 1 109.50000 418.400000
620 18729 18728 1 103.70004 836.800000
621 18729 18728 1 103.70004 836.800000
18728 18730 18731 1 119.8800511 375.723200
18728 18730 18732 1 120.0200517 532.790560
18731 18730 18732 1 119.8800511 375.723200
18730 18732 18733 1 119.8800511 375.723200
18730 18732 18734 1 120.0200517 532.790560
18733 18732 18734 1 119.8800511 375.723200
18732 18734 18735 1 119.8800511 375.723200
18732 18734 18736 1 120.0200517 532.790560
18735 18734 18736 1 119.8800511 375.723200
18727 18736 18734 1 120.0200517 532.790560
18727 18736 18737 1 119.8800511 375.723200
18734 18736 18737 1 119.8800511 375.723200
18738 18739 18740 1 119.8800511 375.723200
18738 18739 18748 1 119.8800511 375.723200
18740 18739 18748 1 120.0200517 532.790560
18739 18740 18741 1 121.3800518 83.010560
18739 18740 18742 1 120.0200517 532.790560
18741 18740 18742 1 121.3800518 83.010560
669 18741 670 1 109.50000 418.400000
669 18741 10239 1 109.50000 418.400000
669 18741 18740 1 103.70004 836.800000
670 18741 10239 1 109.50000 418.400000
670 18741 18740 1 103.70004 836.800000
10239 18741 18740 1 103.70004 836.800000
18740 18742 18743 1 119.8800511 375.723200
18740 18742 18744 1 120.0200517 532.790560
18743 18742 18744 1 119.8800511 375.723200
18742 18744 18745 1 119.8800511 375.723200
18742 18744 18746 1 120.0200517 532.790560
18745 18744 18746 1 119.8800511 375.723200
18744 18746 18747 1 119.8800511 375.723200
18744 18746 18748 1 120.0200517 532.790560
18747 18746 18748 1 119.8800511 375.723200
18739 18748 18746 1 120.0200517 532.790560
18739 18748 18749 1 119.8800511 375.723200
18746 18748 18749 1 119.8800511 375.723200
18750 18751 18752 1 119.8800511 375.723200
18750 18751 18760 1 119.8800511 375.723200
18752 18751 18760 1 120.0200517 532.790560
18751 18752 18753 1 121.3800518 83.010560
18751 18752 18754 1 120.0200517 532.790560
18753 18752 18754 1 121.3800518 83.010560
675 18753 676 1 109.50000 418.400000
675 18753 677 1 109.50000 418.400000
675 18753 18752 1 103.70004 836.800000
676 18753 677 1 109.50000 418.400000
676 18753 18752 1 103.70004 836.800000
677 18753 18752 1 103.70004 836.800000
18752 18754 18755 1 119.8800511 375.723200
18752 18754 18756 1 120.0200517 532.790560
18755 18754 18756 1 119.8800511 375.723200
18754 18756 18757 1 119.8800511 375.723200
18754 18756 18758 1 120.0200517 532.790560
18757 18756 18758 1 119.8800511 375.723200
18756 18758 18759 1 119.8800511 375.723200
18756 18758 18760 1 120.0200517 532.790560
18759 18758 18760 1 119.8800511 375.723200
18751 18760 18758 1 120.0200517 532.790560
18751 18760 18761 1 119.8800511 375.723200
18758 18760 18761 1 119.8800511 375.723200
18762 18763 18764 1 119.8800511 375.723200
18762 18763 18772 1 119.8800511 375.723200
18764 18763 18772 1 120.0200517 532.790560
18763 18764 18765 1 121.3800518 83.010560
18763 18764 18766 1 120.0200517 532.790560
18765 18764 18766 1 121.3800518 83.010560
719 18765 720 1 109.50000 418.400000
719 18765 721 1 109.50000 418.400000
719 18765 18764 1 103.70004 836.800000
720 18765 721 1 109.50000 418.400000
720 18765 18764 1 103.70004 836.800000
721 18765 18764 1 103.70004 836.800000
18764 18766 18767 1 119.8800511 375.723200
18764 18766 18768 1 120.0200517 532.790560
18767 18766 18768 1 119.8800511 375.723200
18766 18768 18769 1 119.8800511 375.723200
18766 18768 18770 1 120.0200517 532.790560
18769 18768 18770 1 119.8800511 375.723200
18768 18770 18771 1 119.8800511 375.723200
18768 18770 18772 1 120.0200517 532.790560
18771 18770 18772 1 119.8800511 375.723200
18763 18772 18770 1 120.0200517 532.790560
18763 18772 18773 1 119.8800511 375.723200
18770 18772 18773 1 119.8800511 375.723200
18774 18775 18776 1 119.8800511 375.723200
18774 18775 18784 1 119.8800511 375.723200
18776 18775 18784 1 120.0200517 532.790560
18775 18776 18777 1 121.3800518 83.010560
18775 18776 18778 1 120.0200517 532.790560
18777 18776 18778 1 121.3800518 83.010560
722 18777 8412 1 109.50000 418.400000
722 18777 11170 1 109.50000 418.400000
722 18777 18776 1 103.70004 836.800000
8412 18777 11170 1 109.50000 418.400000
8412 18777 18776 1 103.70004 836.800000
11170 18777 18776 1 103.70004 836.800000
18776 18778 18779 1 119.8800511 375.723200
18776 18778 18780 1 120.0200517 532.790560
18779 18778 18780 1 119.8800511 375.723200
18778 18780 18781 1 119.8800511 375.723200
18778 18780 18782 1 120.0200517 532.790560
18781 18780 18782 1 119.8800511 375.723200
18780 18782 18783 1 119.8800511 375.723200
18780 18782 18784 1 120.0200517 532.790560
18783 18782 18784 1 119.8800511 375.723200
18775 18784 18782 1 120.0200517 532.790560
18775 18784 18785 1 119.8800511 375.723200
18782 18784 18785 1 119.8800511 375.723200
18786 18787 18788 1 119.8800511 375.723200
18786 18787 18796 1 119.8800511 375.723200
18788 18787 18796 1 120.0200517 532.790560
18787 18788 18789 1 121.3800518 83.010560
18787 18788 18790 1 120.0200517 532.790560
18789 18788 18790 1 121.3800518 83.010560
783 18789 784 1 109.50000 418.400000
783 18789 785 1 109.50000 418.400000
783 18789 18788 1 103.70004 836.800000
784 18789 785 1 109.50000 418.400000
784 18789 18788 1 103.70004 836.800000
785 18789 18788 1 103.70004 836.800000
18788 18790 18791 1 119.8800511 375.723200
18788 18790 18792 1 120.0200517 532.790560
18791 18790 18792 1 119.8800511 375.723200
18790 18792 18793 1 119.8800511 375.723200
18790 18792 18794 1 120.0200517 532.790560
18793 18792 18794 1 119.8800511 375.723200
18792 18794 18795 1 119.8800511 375.723200
18792 18794 18796 1 120.0200517 532.790560
18795 18794 18796 1 119.8800511 375.723200
18787 18796 18794 1 120.0200517 532.790560
18787 18796 18797 1 119.8800511 375.723200
18794 18796 18797 1 119.8800511 375.723200
18798 18799 18800 1 119.8800511 375.723200
18798 18799 18808 1 119.8800511 375.723200
18800 18799 18808 1 120.0200517 532.790560
18799 18800 18801 1 121.3800518 83.010560
18799 18800 18802 1 120.0200517 532.790560
18801 18800 18802 1 121.3800518 83.010560
790 18801 791 1 109.50000 418.400000
790 18801 792 1 109.50000 418.400000
790 18801 18800 1 103.70004 836.800000
791 18801 792 1 109.50000 418.400000
791 18801 18800 1 103.70004 836.800000
792 18801 18800 1 103.70004 836.800000
18800 18802 18803 1 119.8800511 375.723200
18800 18802 18804 1 120.0200517 532.790560
18803 18802 18804 1 119.8800511 375.723200
18802 18804 18805 1 119.8800511 375.723200
18802 18804 18806 1 120.0200517 532.790560
18805 18804 18806 1 119.8800511 375.723200
18804 18806 18807 1 119.8800511 375.723200
18804 18806 18808 1 120.0200517 532.790560
18807 18806 18808 1 119.8800511 375.723200
18799 18808 18806 1 120.0200517 532.790560
18799 18808 18809 1 119.8800511 375.723200
18806 18808 18809 1 119.8800511 375.723200
18810 18811 18812 1 119.8800511 375.723200
18810 18811 18820 1 119.8800511 375.723200
18812 18811 18820 1 120.0200517 532.790560
18811 18812 18813 1 121.3800518 83.010560
18811 18812 18814 1 120.0200517 532.790560
18813 18812 18814 1 121.3800518 83.010560
797 18813 798 1 109.50000 418.400000
797 18813 799 1 109.50000 418.400000
797 18813 18812 1 103.70004 836.800000
798 18813 799 1 109.50000 418.400000
798 18813 18812 1 103.70004 836.800000
799 18813 18812 1 103.70004 836.800000
18812 18814 18815 1 119.8800511 375.723200
18812 18814 18816 1 120.0200517 532.790560
18815 18814 18816 1 119.8800511 375.723200
18814 18816 18817 1 119.8800511 375.723200
18814 18816 18818 1 120.0200517 532.790560
18817 18816 18818 1 119.8800511 375.723200
18816 18818 18819 1 119.8800511 375.723200
18816 18818 18820 1 120.0200517 532.790560
18819 18818 18820 1 119.8800511 375.723200
18811 18820 18818 1 120.0200517 532.790560
18811 18820 18821 1 119.8800511 375.723200
18818 18820 18821 1 119.8800511 375.723200
18822 18823 18824 1 119.8800511 375.723200
18822 18823 18832 1 119.8800511 375.723200
18824 18823 18832 1 120.0200517 532.790560
18823 18824 18825 1 121.3800518 83.010560
18823 18824 18826 1 120.0200517 532.790560
18825 18824 18826 1 121.3800518 83.010560
800 18825 801 1 109.50000 418.400000
800 18825 11147 1 109.50000 418.400000
800 18825 18824 1 103.70004 836.800000
801 18825 11147 1 109.50000 418.400000
801 18825 18824 1 103.70004 836.800000
11147 18825 18824 1 103.70004 836.800000
18824 18826 18827 1 119.8800511 375.723200
18824 18826 18828 1 120.0200517 532.790560
18827 18826 18828 1 119.8800511 375.723200
18826 18828 18829 1 119.8800511 375.723200
18826 18828 18830 1 120.0200517 532.790560
18829 18828 18830 1 119.8800511 375.723200
18828 18830 18831 1 119.8800511 375.723200
18828 18830 18832 1 120.0200517 532.790560
18831 18830 18832 1 119.8800511 375.723200
18823 18832 18830 1 120.0200517 532.790560
18823 18832 18833 1 119.8800511 375.723200
18830 18832 18833 1 119.8800511 375.723200
18834 18835 18836 1 119.8800511 375.723200
18834 18835 18844 1 119.8800511 375.723200
18836 18835 18844 1 120.0200517 532.790560
18835 18836 18837 1 121.3800518 83.010560
18835 18836 18838 1 120.0200517 532.790560
18837 18836 18838 1 121.3800518 83.010560
837 18837 838 1 109.50000 418.400000
837 18837 839 1 109.50000 418.400000
837 18837 18836 1 103.70004 836.800000
838 18837 839 1 109.50000 418.400000
838 18837 18836 1 103.70004 836.800000
839 18837 18836 1 103.70004 836.800000
18836 18838 18839 1 119.8800511 375.723200
18836 18838 18840 1 120.0200517 532.790560
18839 18838 18840 1 119.8800511 375.723200
18838 18840 18841 1 119.8800511 375.723200
18838 18840 18842 1 120.0200517 532.790560
18841 18840 18842 1 119.8800511 375.723200
18840 18842 18843 1 119.8800511 375.723200
18840 18842 18844 1 120.0200517 532.790560
18843 18842 18844 1 119.8800511 375.723200
18835 18844 18842 1 120.0200517 532.790560
18835 18844 18845 1 119.8800511 375.723200
18842 18844 18845 1 119.8800511 375.723200
18846 18847 18848 1 119.8800511 375.723200
18846 18847 18856 1 119.8800511 375.723200
18848 18847 18856 1 120.0200517 532.790560
18847 18848 18849 1 121.3800518 83.010560
18847 18848 18850 1 120.0200517 532.790560
18849 18848 18850 1 121.3800518 83.010560
840 18849 8869 1 109.50000 418.400000
840 18849 11171 1 109.50000 418.400000
840 18849 18848 1 103.70004 836.800000
8869 18849 11171 1 109.50000 418.400000
8869 18849 18848 1 103.70004 836.800000
11171 18849 18848 1 103.70004 836.800000
18848 18850 18851 1 119.8800511 375.723200
18848 18850 18852 1 120.0200517 532.790560
18851 18850 18852 1 119.8800511 375.723200
18850 18852 18853 1 119.8800511 375.723200
18850 18852 18854 1 120.0200517 532.790560
18853 18852 18854 1 119.8800511 375.723200
18852 18854 18855 1 119.8800511 375.723200
18852 18854 18856 1 120.0200517 532.790560
18855 18854 18856 1 119.8800511 375.723200
18847 18856 18854 1 120.0200517 532.790560
18847 18856 18857 1 119.8800511 375.723200
18854 18856 18857 1 119.8800511 375.723200
18858 18859 18860 1 119.8800511 375.723200
18858 18859 18868 1 119.8800511 375.723200
18860 18859 18868 1 120.0200517 532.790560
18859 18860 18861 1 121.3800518 83.010560
18859 18860 18862 1 120.0200517 532.790560
18861 18860 18862 1 121.3800518 83.010560
964 18861 965 1 109.50000 418.400000
964 18861 11172 1 109.50000 418.400000
964 18861 18860 1 103.70004 836.800000
965 18861 11172 1 109.50000 418.400000
965 18861 18860 1 103.70004 836.800000
11172 18861 18860 1 103.70004 836.800000
18860 18862 18863 1 119.8800511 375.723200
18860 18862 18864 1 120.0200517 532.790560
18863 18862 18864 1 119.8800511 375.723200
18862 18864 18865 1 119.8800511 375.723200
18862 18864 18866 1 120.0200517 532.790560
18865 18864 18866 1 119.8800511 375.723200
18864 18866 18867 1 119.8800511 375.723200
18864 18866 18868 1 120.0200517 532.790560
18867 18866 18868 1 119.8800511 375.723200
18859 18868 18866 1 120.0200517 532.790560
18859 18868 18869 1 119.8800511 375.723200
18866 18868 18869 1 119.8800511 375.723200
18870 18871 18872 1 119.8800511 375.723200
18870 18871 18880 1 119.8800511 375.723200
18872 18871 18880 1 120.0200517 532.790560
18871 18872 18873 1 121.3800518 83.010560
18871 18872 18874 1 120.0200517 532.790560
18873 18872 18874 1 121.3800518 83.010560
978 18873 979 1 109.50000 418.400000
978 18873 980 1 109.50000 418.400000
978 18873 18872 1 103.70004 836.800000
979 18873 980 1 109.50000 418.400000
979 18873 18872 1 103.70004 836.800000
980 18873 18872 1 103.70004 836.800000
18872 18874 18875 1 119.8800511 375.723200
18872 18874 18876 1 120.0200517 532.790560
18875 18874 18876 1 119.8800511 375.723200
18874 18876 18877 1 119.8800511 375.723200
18874 18876 18878 1 120.0200517 532.790560
18877 18876 18878 1 119.8800511 375.723200
18876 18878 18879 1 119.8800511 375.723200
18876 18878 18880 1 120.0200517 532.790560
18879 18878 18880 1 119.8800511 375.723200
18871 18880 18878 1 120.0200517 532.790560
18871 18880 18881 1 119.8800511 375.723200
18878 18880 18881 1 119.8800511 375.723200
18882 18883 18884 1 119.8800511 375.723200
18882 18883 18892 1 119.8800511 375.723200
18884 18883 18892 1 120.0200517 532.790560
18883 18884 18885 1 121.3800518 83.010560
18883 18884 18886 1 120.0200517 532.790560
18885 18884 18886 1 121.3800518 83.010560
1027 18885 1028 1 109.50000 418.400000
1027 18885 1029 1 109.50000 418.400000
1027 18885 18884 1 103.70004 836.800000
1028 18885 1029 1 109.50000 418.400000
1028 18885 18884 1 103.70004 836.800000
1029 18885 18884 1 103.70004 836.800000
18884 18886 18887 1 119.8800511 375.723200
18884 18886 18888 1 120.0200517 532.790560
18887 18886 18888 1 119.8800511 375.723200
18886 18888 18889 1 119.8800511 375.723200
18886 18888 18890 1 120.0200517 532.790560
18889 18888 18890 1 119.8800511 375.723200
18888 18890 18891 1 119.8800511 375.723200
18888 18890 18892 1 120.0200517 532.790560
18891 18890 18892 1 119.8800511 375.723200
18883 18892 18890 1 120.0200517 532.790560
18883 18892 18893 1 119.8800511 375.723200
18890 18892 18893 1 119.8800511 375.723200
18894 18895 18896 1 119.8800511 375.723200
18894 18895 18904 1 119.8800511 375.723200
18896 18895 18904 1 120.0200517 532.790560
18895 18896 18897 1 121.3800518 83.010560
18895 18896 18898 1 120.0200517 532.790560
18897 18896 18898 1 121.3800518 83.010560
1034 18897 1035 1 109.50000 418.400000
1034 18897 5178 1 109.50000 418.400000
1034 18897 18896 1 103.70004 836.800000
1035 18897 5178 1 109.50000 418.400000
1035 18897 18896 1 103.70004 836.800000
5178 18897 18896 1 103.70004 836.800000
18896 18898 18899 1 119.8800511 375.723200
18896 18898 18900 1 120.0200517 532.790560
18899 18898 18900 1 119.8800511 375.723200
18898 18900 18901 1 119.8800511 375.723200
18898 18900 18902 1 120.0200517 532.790560
18901 18900 18902 1 119.8800511 375.723200
18900 18902 18903 1 119.8800511 375.723200
18900 18902 18904 1 120.0200517 532.790560
18903 18902 18904 1 119.8800511 375.723200
18895 18904 18902 1 120.0200517 532.790560
18895 18904 18905 1 119.8800511 375.723200
18902 18904 18905 1 119.8800511 375.723200
18906 18907 18908 1 119.8800511 375.723200
18906 18907 18916 1 119.8800511 375.723200
18908 18907 18916 1 120.0200517 532.790560
18907 18908 18909 1 121.3800518 83.010560
18907 18908 18910 1 120.0200517 532.790560
18909 18908 18910 1 121.3800518 83.010560
1042 18909 1043 1 109.50000 418.400000
1042 18909 1044 1 109.50000 418.400000
1042 18909 18908 1 103.70004 836.800000
1043 18909 1044 1 109.50000 418.400000
1043 18909 18908 1 103.70004 836.800000
1044 18909 18908 1 103.70004 836.800000
18908 18910 18911 1 119.8800511 375.723200
18908 18910 18912 1 120.0200517 532.790560
18911 18910 18912 1 119.8800511 375.723200
18910 18912 18913 1 119.8800511 375.723200
18910 18912 18914 1 120.0200517 532.790560
18913 18912 18914 1 119.8800511 375.723200
18912 18914 18915 1 119.8800511 375.723200
18912 18914 18916 1 120.0200517 532.790560
18915 18914 18916 1 119.8800511 375.723200
18907 18916 18914 1 120.0200517 532.790560
18907 18916 18917 1 119.8800511 375.723200
18914 18916 18917 1 119.8800511 375.723200
18918 18919 18920 1 119.8800511 375.723200
18918 18919 18928 1 119.8800511 375.723200
18920 18919 18928 1 120.0200517 532.790560
18919 18920 18921 1 121.3800518 83.010560
18919 18920 18922 1 120.0200517 532.790560
18921 18920 18922 1 121.3800518 83.010560
1110 18921 1111 1 109.50000 418.400000
1110 18921 1112 1 109.50000 418.400000
1110 18921 18920 1 103.70004 836.800000
1111 18921 1112 1 109.50000 418.400000
1111 18921 18920 1 103.70004 836.800000
1112 18921 18920 1 103.70004 836.800000
18920 18922 18923 1 119.8800511 375.723200
18920 18922 18924 1 120.0200517 532.790560
18923 18922 18924 1 119.8800511 375.723200
18922 18924 18925 1 119.8800511 375.723200
18922 18924 18926 1 120.0200517 532.790560
18925 18924 18926 1 119.8800511 375.723200
18924 18926 18927 1 119.8800511 375.723200
18924 18926 18928 1 120.0200517 532.790560
18927 18926 18928 1 119.8800511 375.723200
18919 18928 18926 1 120.0200517 532.790560
18919 18928 18929 1 119.8800511 375.723200
18926 18928 18929 1 119.8800511 375.723200
18930 18931 18932 1 119.8800511 375.723200
18930 18931 18940 1 119.8800511 375.723200
18932 18931 18940 1 120.0200517 532.790560
18931 18932 18933 1 121.3800518 83.010560
18931 18932 18934 1 120.0200517 532.790560
18933 18932 18934 1 121.3800518 83.010560
1179 18933 1180 1 109.50000 418.400000
1179 18933 11173 1 109.50000 418.400000
1179 18933 18932 1 103.70004 836.800000
1180 18933 11173 1 109.50000 418.400000
1180 18933 18932 1 103.70004 836.800000
11173 18933 18932 1 103.70004 836.800000
18932 18934 18935 1 119.8800511 375.723200
18932 18934 18936 1 120.0200517 532.790560
18935 18934 18936 1 119.8800511 375.723200
18934 18936 18937 1 119.8800511 375.723200
18934 18936 18938 1 120.0200517 532.790560
18937 18936 18938 1 119.8800511 375.723200
18936 18938 18939 1 119.8800511 375.723200
18936 18938 18940 1 120.0200517 532.790560
18939 18938 18940 1 119.8800511 375.723200
18931 18940 18938 1 120.0200517 532.790560
18931 18940 18941 1 119.8800511 375.723200
18938 18940 18941 1 119.8800511 375.723200
18942 18943 18944 1 119.8800511 375.723200
18942 18943 18952 1 119.8800511 375.723200
18944 18943 18952 1 120.0200517 532.790560
18943 18944 18945 1 121.3800518 83.010560
18943 18944 18946 1 120.0200517 532.790560
18945 18944 18946 1 121.3800518 83.010560
1206 18945 1207 1 109.50000 418.400000
1206 18945 11148 1 109.50000 418.400000
1206 18945 18944 1 103.70004 836.800000
1207 18945 11148 1 109.50000 418.400000
1207 18945 18944 1 103.70004 836.800000
11148 18945 18944 1 103.70004 836.800000
18944 18946 18947 1 119.8800511 375.723200
18944 18946 18948 1 120.0200517 532.790560
18947 18946 18948 1 119.8800511 375.723200
18946 18948 18949 1 119.8800511 375.723200
18946 18948 18950 1 120.0200517 532.790560
18949 18948 18950 1 119.8800511 375.723200
18948 18950 18951 1 119.8800511 375.723200
18948 18950 18952 1 120.0200517 532.790560
18951 18950 18952 1 119.8800511 375.723200
18943 18952 18950 1 120.0200517 532.790560
18943 18952 18953 1 119.8800511 375.723200
18950 18952 18953 1 119.8800511 375.723200
18954 18955 18956 1 119.8800511 375.723200
18954 18955 18964 1 119.8800511 375.723200
18956 18955 18964 1 120.0200517 532.790560
18955 18956 18957 1 121.3800518 83.010560
18955 18956 18958 1 120.0200517 532.790560
18957 18956 18958 1 121.3800518 83.010560
1222 18957 1223 1 109.50000 418.400000
1222 18957 1224 1 109.50000 418.400000
1222 18957 18956 1 103.70004 836.800000
1223 18957 1224 1 109.50000 418.400000
1223 18957 18956 1 103.70004 836.800000
1224 18957 18956 1 103.70004 836.800000
18956 18958 18959 1 119.8800511 375.723200
18956 18958 18960 1 120.0200517 532.790560
18959 18958 18960 1 119.8800511 375.723200
18958 18960 18961 1 119.8800511 375.723200
18958 18960 18962 1 120.0200517 532.790560
18961 18960 18962 1 119.8800511 375.723200
18960 18962 18963 1 119.8800511 375.723200
18960 18962 18964 1 120.0200517 532.790560
18963 18962 18964 1 119.8800511 375.723200
18955 18964 18962 1 120.0200517 532.790560
18955 18964 18965 1 119.8800511 375.723200
18962 18964 18965 1 119.8800511 375.723200
18966 18967 18968 1 119.8800511 375.723200
18966 18967 18976 1 119.8800511 375.723200
18968 18967 18976 1 120.0200517 532.790560
18967 18968 18969 1 121.3800518 83.010560
18967 18968 18970 1 120.0200517 532.790560
18969 18968 18970 1 121.3800518 83.010560
1237 18969 1238 1 109.50000 418.400000
1237 18969 1239 1 109.50000 418.400000
1237 18969 18968 1 103.70004 836.800000
1238 18969 1239 1 109.50000 418.400000
1238 18969 18968 1 103.70004 836.800000
1239 18969 18968 1 103.70004 836.800000
18968 18970 18971 1 119.8800511 375.723200
18968 18970 18972 1 120.0200517 532.790560
18971 18970 18972 1 119.8800511 375.723200
18970 18972 18973 1 119.8800511 375.723200
18970 18972 18974 1 120.0200517 532.790560
18973 18972 18974 1 119.8800511 375.723200
18972 18974 18975 1 119.8800511 375.723200
18972 18974 18976 1 120.0200517 532.790560
18975 18974 18976 1 119.8800511 375.723200
18967 18976 18974 1 120.0200517 532.790560
18967 18976 18977 1 119.8800511 375.723200
18974 18976 18977 1 119.8800511 375.723200
18978 18979 18980 1 119.8800511 375.723200
18978 18979 18988 1 119.8800511 375.723200
18980 18979 18988 1 120.0200517 532.790560
18979 18980 18981 1 121.3800518 83.010560
18979 18980 18982 1 120.0200517 532.790560
18981 18980 18982 1 121.3800518 83.010560
1286 18981 1288 1 109.50000 418.400000
1286 18981 9978 1 109.50000 418.400000
1286 18981 18980 1 103.70004 836.800000
1288 18981 9978 1 109.50000 418.400000
1288 18981 18980 1 103.70004 836.800000
9978 18981 18980 1 103.70004 836.800000
18980 18982 18983 1 119.8800511 375.723200
18980 18982 18984 1 120.0200517 532.790560
18983 18982 18984 1 119.8800511 375.723200
18982 18984 18985 1 119.8800511 375.723200
18982 18984 18986 1 120.0200517 532.790560
18985 18984 18986 1 119.8800511 375.723200
18984 18986 18987 1 119.8800511 375.723200
18984 18986 18988 1 120.0200517 532.790560
18987 18986 18988 1 119.8800511 375.723200
18979 18988 18986 1 120.0200517 532.790560
18979 18988 18989 1 119.8800511 375.723200
18986 18988 18989 1 119.8800511 375.723200
18990 18991 18992 1 119.8800511 375.723200
18990 18991 19000 1 119.8800511 375.723200
18992 18991 19000 1 120.0200517 532.790560
18991 18992 18993 1 121.3800518 83.010560
18991 18992 18994 1 120.0200517 532.790560
18993 18992 18994 1 121.3800518 83.010560
1329 18993 1331 1 109.50000 418.400000
1329 18993 2429 1 109.50000 418.400000
1329 18993 18992 1 103.70004 836.800000
1331 18993 2429 1 109.50000 418.400000
1331 18993 18992 1 103.70004 836.800000
2429 18993 18992 1 103.70004 836.800000
18992 18994 18995 1 119.8800511 375.723200
18992 18994 18996 1 120.0200517 532.790560
18995 18994 18996 1 119.8800511 375.723200
18994 18996 18997 1 119.8800511 375.723200
18994 18996 18998 1 120.0200517 532.790560
18997 18996 18998 1 119.8800511 375.723200
18996 18998 18999 1 119.8800511 375.723200
18996 18998 19000 1 120.0200517 532.790560
18999 18998 19000 1 119.8800511 375.723200
18991 19000 18998 1 120.0200517 532.790560
18991 19000 19001 1 119.8800511 375.723200
18998 19000 19001 1 119.8800511 375.723200
19002 19003 19004 1 119.8800511 375.723200
19002 19003 19012 1 119.8800511 375.723200
19004 19003 19012 1 120.0200517 532.790560
19003 19004 19005 1 121.3800518 83.010560
19003 19004 19006 1 120.0200517 532.790560
19005 19004 19006 1 121.3800518 83.010560
1343 19005 1344 1 109.50000 418.400000
1343 19005 11149 1 109.50000 418.400000
1343 19005 19004 1 103.70004 836.800000
1344 19005 11149 1 109.50000 418.400000
1344 19005 19004 1 103.70004 836.800000
11149 19005 19004 1 103.70004 836.800000
19004 19006 19007 1 119.8800511 375.723200
19004 19006 19008 1 120.0200517 532.790560
19007 19006 19008 1 119.8800511 375.723200
19006 19008 19009 1 119.8800511 375.723200
19006 19008 19010 1 120.0200517 532.790560
19009 19008 19010 1 119.8800511 375.723200
19008 19010 19011 1 119.8800511 375.723200
19008 19010 19012 1 120.0200517 532.790560
19011 19010 19012 1 119.8800511 375.723200
19003 19012 19010 1 120.0200517 532.790560
19003 19012 19013 1 119.8800511 375.723200
19010 19012 19013 1 119.8800511 375.723200
19014 19015 19016 1 119.8800511 375.723200
19014 19015 19024 1 119.8800511 375.723200
19016 19015 19024 1 120.0200517 532.790560
19015 19016 19017 1 121.3800518 83.010560
19015 19016 19018 1 120.0200517 532.790560
19017 19016 19018 1 121.3800518 83.010560
1380 19017 1381 1 109.50000 418.400000
1380 19017 1382 1 109.50000 418.400000
1380 19017 19016 1 103.70004 836.800000
1381 19017 1382 1 109.50000 418.400000
1381 19017 19016 1 103.70004 836.800000
1382 19017 19016 1 103.70004 836.800000
19016 19018 19019 1 119.8800511 375.723200
19016 19018 19020 1 120.0200517 532.790560
19019 19018 19020 1 119.8800511 375.723200
19018 19020 19021 1 119.8800511 375.723200
19018 19020 19022 1 120.0200517 532.790560
19021 19020 19022 1 119.8800511 375.723200
19020 19022 19023 1 119.8800511 375.723200
19020 19022 19024 1 120.0200517 532.790560
19023 19022 19024 1 119.8800511 375.723200
19015 19024 19022 1 120.0200517 532.790560
19015 19024 19025 1 119.8800511 375.723200
19022 19024 19025 1 119.8800511 375.723200
19026 19027 19028 1 119.8800511 375.723200
19026 19027 19036 1 119.8800511 375.723200
19028 19027 19036 1 120.0200517 532.790560
19027 19028 19029 1 121.3800518 83.010560
19027 19028 19030 1 120.0200517 532.790560
19029 19028 19030 1 121.3800518 83.010560
1387 19029 1388 1 109.50000 418.400000
1387 19029 1389 1 109.50000 418.400000
1387 19029 19028 1 103.70004 836.800000
1388 19029 1389 1 109.50000 418.400000
1388 19029 19028 1 103.70004 836.800000
1389 19029 19028 1 103.70004 836.800000
19028 19030 19031 1 119.8800511 375.723200
19028 19030 19032 1 120.0200517 532.790560
19031 19030 19032 1 119.8800511 375.723200
19030 19032 19033 1 119.8800511 375.723200
19030 19032 19034 1 120.0200517 532.790560
19033 19032 19034 1 119.8800511 375.723200
19032 19034 19035 1 119.8800511 375.723200
19032 19034 19036 1 120.0200517 532.790560
19035 19034 19036 1 119.8800511 375.723200
19027 19036 19034 1 120.0200517 532.790560
19027 19036 19037 1 119.8800511 375.723200
19034 19036 19037 1 119.8800511 375.723200
19038 19039 19040 1 119.8800511 375.723200
19038 19039 19048 1 119.8800511 375.723200
19040 19039 19048 1 120.0200517 532.790560
19039 19040 19041 1 121.3800518 83.010560
19039 19040 19042 1 120.0200517 532.790560
19041 19040 19042 1 121.3800518 83.010560
1406 19041 1407 1 109.50000 418.400000
1406 19041 1408 1 109.50000 418.400000
1406 19041 19040 1 103.70004 836.800000
1407 19041 1408 1 109.50000 418.400000
1407 19041 19040 1 103.70004 836.800000
1408 19041 19040 1 103.70004 836.800000
19040 19042 19043 1 119.8800511 375.723200
19040 19042 19044 1 120.0200517 532.790560
19043 19042 19044 1 119.8800511 375.723200
19042 19044 19045 1 119.8800511 375.723200
19042 19044 19046 1 120.0200517 532.790560
19045 19044 19046 1 119.8800511 375.723200
19044 19046 19047 1 119.8800511 375.723200
19044 19046 19048 1 120.0200517 532.790560
19047 19046 19048 1 119.8800511 375.723200
19039 19048 19046 1 120.0200517 532.790560
19039 19048 19049 1 119.8800511 375.723200
19046 19048 19049 1 119.8800511 375.723200
19050 19051 19052 1 119.8800511 375.723200
19050 19051 19060 1 119.8800511 375.723200
19052 19051 19060 1 120.0200517 532.790560
19051 19052 19053 1 121.3800518 83.010560
19051 19052 19054 1 120.0200517 532.790560
19053 19052 19054 1 121.3800518 83.010560
1413 19053 1414 1 109.50000 418.400000
1413 19053 11174 1 109.50000 418.400000
1413 19053 19052 1 103.70004 836.800000
1414 19053 11174 1 109.50000 418.400000
1414 19053 19052 1 103.70004 836.800000
11174 19053 19052 1 103.70004 836.800000
19052 19054 19055 1 119.8800511 375.723200
19052 19054 19056 1 120.0200517 532.790560
19055 19054 19056 1 119.8800511 375.723200
19054 19056 19057 1 119.8800511 375.723200
19054 19056 19058 1 120.0200517 532.790560
19057 19056 19058 1 119.8800511 375.723200
19056 19058 19059 1 119.8800511 375.723200
19056 19058 19060 1 120.0200517 532.790560
19059 19058 19060 1 119.8800511 375.723200
19051 19060 19058 1 120.0200517 532.790560
19051 19060 19061 1 119.8800511 375.723200
19058 19060 19061 1 119.8800511 375.723200
19062 19063 19064 1 119.8800511 375.723200
19062 19063 19072 1 119.8800511 375.723200
19064 19063 19072 1 120.0200517 532.790560
19063 19064 19065 1 121.3800518 83.010560
19063 19064 19066 1 120.0200517 532.790560
19065 19064 19066 1 121.3800518 83.010560
1443 19065 1444 1 109.50000 418.400000
1443 19065 11150 1 109.50000 418.400000
1443 19065 19064 1 103.70004 836.800000
1444 19065 11150 1 109.50000 418.400000
1444 19065 19064 1 103.70004 836.800000
11150 19065 19064 1 103.70004 836.800000
19064 19066 19067 1 119.8800511 375.723200
19064 19066 19068 1 120.0200517 532.790560
19067 19066 19068 1 119.8800511 375.723200
19066 19068 19069 1 119.8800511 375.723200
19066 19068 19070 1 120.0200517 532.790560
19069 19068 19070 1 119.8800511 375.723200
19068 19070 19071 1 119.8800511 375.723200
19068 19070 19072 1 120.0200517 532.790560
19071 19070 19072 1 119.8800511 375.723200
19063 19072 19070 1 120.0200517 532.790560
19063 19072 19073 1 119.8800511 375.723200
19070 19072 19073 1 119.8800511 375.723200
19074 19075 19076 1 119.8800511 375.723200
19074 19075 19084 1 119.8800511 375.723200
19076 19075 19084 1 120.0200517 532.790560
19075 19076 19077 1 121.3800518 83.010560
19075 19076 19078 1 120.0200517 532.790560
19077 19076 19078 1 121.3800518 83.010560
1449 19077 1450 1 109.50000 418.400000
1449 19077 11151 1 109.50000 418.400000
1449 19077 19076 1 103.70004 836.800000
1450 19077 11151 1 109.50000 418.400000
1450 19077 19076 1 103.70004 836.800000
11151 19077 19076 1 103.70004 836.800000
19076 19078 19079 1 119.8800511 375.723200
19076 19078 19080 1 120.0200517 532.790560
19079 19078 19080 1 119.8800511 375.723200
19078 19080 19081 1 119.8800511 375.723200
19078 19080 19082 1 120.0200517 532.790560
19081 19080 19082 1 119.8800511 375.723200
19080 19082 19083 1 119.8800511 375.723200
19080 19082 19084 1 120.0200517 532.790560
19083 19082 19084 1 119.8800511 375.723200
19075 19084 19082 1 120.0200517 532.790560
19075 19084 19085 1 119.8800511 375.723200
19082 19084 19085 1 119.8800511 375.723200
19086 19087 19088 1 119.8800511 375.723200
19086 19087 19096 1 119.8800511 375.723200
19088 19087 19096 1 120.0200517 532.790560
19087 19088 19089 1 121.3800518 83.010560
19087 19088 19090 1 120.0200517 532.790560
19089 19088 19090 1 121.3800518 83.010560
1454 19089 1455 1 109.50000 418.400000
1454 19089 1456 1 109.50000 418.400000
1454 19089 19088 1 103.70004 836.800000
1455 19089 1456 1 109.50000 418.400000
1455 19089 19088 1 103.70004 836.800000
1456 19089 19088 1 103.70004 836.800000
19088 19090 19091 1 119.8800511 375.723200
19088 19090 19092 1 120.0200517 532.790560
19091 19090 19092 1 119.8800511 375.723200
19090 19092 19093 1 119.8800511 375.723200
19090 19092 19094 1 120.0200517 532.790560
19093 19092 19094 1 119.8800511 375.723200
19092 19094 19095 1 119.8800511 375.723200
19092 19094 19096 1 120.0200517 532.790560
19095 19094 19096 1 119.8800511 375.723200
19087 19096 19094 1 120.0200517 532.790560
19087 19096 19097 1 119.8800511 375.723200
19094 19096 19097 1 119.8800511 375.723200
19098 19099 19100 1 119.8800511 375.723200
19098 19099 19108 1 119.8800511 375.723200
19100 19099 19108 1 120.0200517 532.790560
19099 19100 19101 1 121.3800518 83.010560
19099 19100 19102 1 120.0200517 532.790560
19101 19100 19102 1 121.3800518 83.010560
1470 19101 1471 1 109.50000 418.400000
1470 19101 11152 1 109.50000 418.400000
1470 19101 19100 1 103.70004 836.800000
1471 19101 11152 1 109.50000 418.400000
1471 19101 19100 1 103.70004 836.800000
11152 19101 19100 1 103.70004 836.800000
19100 19102 19103 1 119.8800511 375.723200
19100 19102 19104 1 120.0200517 532.790560
19103 19102 19104 1 119.8800511 375.723200
19102 19104 19105 1 119.8800511 375.723200
19102 19104 19106 1 120.0200517 532.790560
19105 19104 19106 1 119.8800511 375.723200
19104 19106 19107 1 119.8800511 375.723200
19104 19106 19108 1 120.0200517 532.790560
19107 19106 19108 1 119.8800511 375.723200
19099 19108 19106 1 120.0200517 532.790560
19099 19108 19109 1 119.8800511 375.723200
19106 19108 19109 1 119.8800511 375.723200
19110 19111 19112 1 119.8800511 375.723200
19110 19111 19120 1 119.8800511 375.723200
19112 19111 19120 1 120.0200517 532.790560
19111 19112 19113 1 121.3800518 83.010560
19111 19112 19114 1 120.0200517 532.790560
19113 19112 19114 1 121.3800518 83.010560
1476 19113 1477 1 109.50000 418.400000
1476 19113 11153 1 109.50000 418.400000
1476 19113 19112 1 103.70004 836.800000
1477 19113 11153 1 109.50000 418.400000
1477 19113 19112 1 103.70004 836.800000
11153 19113 19112 1 103.70004 836.800000
19112 19114 19115 1 119.8800511 375.723200
19112 19114 19116 1 120.0200517 532.790560
19115 19114 19116 1 119.8800511 375.723200
19114 19116 19117 1 119.8800511 375.723200
19114 19116 19118 1 120.0200517 532.790560
19117 19116 19118 1 119.8800511 375.723200
19116 19118 19119 1 119.8800511 375.723200
19116 19118 19120 1 120.0200517 532.790560
19119 19118 19120 1 119.8800511 375.723200
19111 19120 19118 1 120.0200517 532.790560
19111 19120 19121 1 119.8800511 375.723200
19118 19120 19121 1 119.8800511 375.723200
19122 19123 19124 1 119.8800511 375.723200
19122 19123 19132 1 119.8800511 375.723200
19124 19123 19132 1 120.0200517 532.790560
19123 19124 19125 1 121.3800518 83.010560
19123 19124 19126 1 120.0200517 532.790560
19125 19124 19126 1 121.3800518 83.010560
1541 19125 1542 1 109.50000 418.400000
1541 19125 11154 1 109.50000 418.400000
1541 19125 19124 1 103.70004 836.800000
1542 19125 11154 1 109.50000 418.400000
1542 19125 19124 1 103.70004 836.800000
11154 19125 19124 1 103.70004 836.800000
19124 19126 19127 1 119.8800511 375.723200
19124 19126 19128 1 120.0200517 532.790560
19127 19126 19128 1 119.8800511 375.723200
19126 19128 19129 1 119.8800511 375.723200
19126 19128 19130 1 120.0200517 532.790560
19129 19128 19130 1 119.8800511 375.723200
19128 19130 19131 1 119.8800511 375.723200
19128 19130 19132 1 120.0200517 532.790560
19131 19130 19132 1 119.8800511 375.723200
19123 19132 19130 1 120.0200517 532.790560
19123 19132 19133 1 119.8800511 375.723200
19130 19132 19133 1 119.8800511 375.723200
19134 19135 19136 1 119.8800511 375.723200
19134 19135 19144 1 119.8800511 375.723200
19136 19135 19144 1 120.0200517 532.790560
19135 19136 19137 1 121.3800518 83.010560
19135 19136 19138 1 120.0200517 532.790560
19137 19136 19138 1 121.3800518 83.010560
1623 19137 1624 1 109.50000 418.400000
1623 19137 1625 1 109.50000 418.400000
1623 19137 19136 1 103.70004 836.800000
1624 19137 1625 1 109.50000 418.400000
1624 19137 19136 1 103.70004 836.800000
1625 19137 19136 1 103.70004 836.800000
19136 19138 19139 1 119.8800511 375.723200
19136 19138 19140 1 120.0200517 532.790560
19139 19138 19140 1 119.8800511 375.723200
19138 19140 19141 1 119.8800511 375.723200
19138 19140 19142 1 120.0200517 532.790560
19141 19140 19142 1 119.8800511 375.723200
19140 19142 19143 1 119.8800511 375.723200
19140 19142 19144 1 120.0200517 532.790560
19143 19142 19144 1 119.8800511 375.723200
19135 19144 19142 1 120.0200517 532.790560
19135 19144 19145 1 119.8800511 375.723200
19142 19144 19145 1 119.8800511 375.723200
19146 19147 19148 1 119.8800511 375.723200
19146 19147 19156 1 119.8800511 375.723200
19148 19147 19156 1 120.0200517 532.790560
19147 19148 19149 1 121.3800518 83.010560
19147 19148 19150 1 120.0200517 532.790560
19149 19148 19150 1 121.3800518 83.010560
1634 19149 1635 1 109.50000 418.400000
1634 19149 1636 1 109.50000 418.400000
1634 19149 19148 1 103.70004 836.800000
1635 19149 1636 1 109.50000 418.400000
1635 19149 19148 1 103.70004 836.800000
1636 19149 19148 1 103.70004 836.800000
19148 19150 19151 1 119.8800511 375.723200
19148 19150 19152 1 120.0200517 532.790560
19151 19150 19152 1 119.8800511 375.723200
19150 19152 19153 1 119.8800511 375.723200
19150 19152 19154 1 120.0200517 532.790560
19153 19152 19154 1 119.8800511 375.723200
19152 19154 19155 1 119.8800511 375.723200
19152 19154 19156 1 120.0200517 532.790560
19155 19154 19156 1 119.8800511 375.723200
19147 19156 19154 1 120.0200517 532.790560
19147 19156 19157 1 119.8800511 375.723200
19154 19156 19157 1 119.8800511 375.723200
19158 19159 19160 1 119.8800511 375.723200
19158 19159 19168 1 119.8800511 375.723200
19160 19159 19168 1 120.0200517 532.790560
19159 19160 19161 1 121.3800518 83.010560
19159 19160 19162 1 120.0200517 532.790560
19161 19160 19162 1 121.3800518 83.010560
1644 19161 1645 1 109.50000 418.400000
1644 19161 1646 1 109.50000 418.400000
1644 19161 19160 1 103.70004 836.800000
1645 19161 1646 1 109.50000 418.400000
1645 19161 19160 1 103.70004 836.800000
1646 19161 19160 1 103.70004 836.800000
19160 19162 19163 1 119.8800511 375.723200
19160 19162 19164 1 120.0200517 532.790560
19163 19162 19164 1 119.8800511 375.723200
19162 19164 19165 1 119.8800511 375.723200
19162 19164 19166 1 120.0200517 532.790560
19165 19164 19166 1 119.8800511 375.723200
19164 19166 19167 1 119.8800511 375.723200
19164 19166 19168 1 120.0200517 532.790560
19167 19166 19168 1 119.8800511 375.723200
19159 19168 19166 1 120.0200517 532.790560
19159 19168 19169 1 119.8800511 375.723200
19166 19168 19169 1 119.8800511 375.723200
19170 19171 19172 1 119.8800511 375.723200
19170 19171 19180 1 119.8800511 375.723200
19172 19171 19180 1 120.0200517 532.790560
19171 19172 19173 1 121.3800518 83.010560
19171 19172 19174 1 120.0200517 532.790560
19173 19172 19174 1 121.3800518 83.010560
1650 19173 1651 1 109.50000 418.400000
1650 19173 11140 1 109.50000 418.400000
1650 19173 19172 1 103.70004 836.800000
1651 19173 11140 1 109.50000 418.400000
1651 19173 19172 1 103.70004 836.800000
11140 19173 19172 1 103.70004 836.800000
19172 19174 19175 1 119.8800511 375.723200
19172 19174 19176 1 120.0200517 532.790560
19175 19174 19176 1 119.8800511 375.723200
19174 19176 19177 1 119.8800511 375.723200
19174 19176 19178 1 120.0200517 532.790560
19177 19176 19178 1 119.8800511 375.723200
19176 19178 19179 1 119.8800511 375.723200
19176 19178 19180 1 120.0200517 532.790560
19179 19178 19180 1 119.8800511 375.723200
19171 19180 19178 1 120.0200517 532.790560
19171 19180 19181 1 119.8800511 375.723200
19178 19180 19181 1 119.8800511 375.723200
19182 19183 19184 1 119.8800511 375.723200
19182 19183 19192 1 119.8800511 375.723200
19184 19183 19192 1 120.0200517 532.790560
19183 19184 19185 1 121.3800518 83.010560
19183 19184 19186 1 120.0200517 532.790560
19185 19184 19186 1 121.3800518 83.010560
1652 19185 1653 1 109.50000 418.400000
1652 19185 1654 1 109.50000 418.400000
1652 19185 19184 1 103.70004 836.800000
1653 19185 1654 1 109.50000 418.400000
1653 19185 19184 1 103.70004 836.800000
1654 19185 19184 1 103.70004 836.800000
19184 19186 19187 1 119.8800511 375.723200
19184 19186 19188 1 120.0200517 532.790560
19187 19186 19188 1 119.8800511 375.723200
19186 19188 19189 1 119.8800511 375.723200
19186 19188 19190 1 120.0200517 532.790560
19189 19188 19190 1 119.8800511 375.723200
19188 19190 19191 1 119.8800511 375.723200
19188 19190 19192 1 120.0200517 532.790560
19191 19190 19192 1 119.8800511 375.723200
19183 19192 19190 1 120.0200517 532.790560
19183 19192 19193 1 119.8800511 375.723200
19190 19192 19193 1 119.8800511 375.723200
19194 19195 19196 1 119.8800511 375.723200
19194 19195 19204 1 119.8800511 375.723200
19196 19195 19204 1 120.0200517 532.790560
19195 19196 19197 1 121.3800518 83.010560
19195 19196 19198 1 120.0200517 532.790560
19197 19196 19198 1 121.3800518 83.010560
1652 19197 1655 1 109.50000 418.400000
1652 19197 11155 1 109.50000 418.400000
1652 19197 19196 1 103.70004 836.800000
1655 19197 11155 1 109.50000 418.400000
1655 19197 19196 1 103.70004 836.800000
11155 19197 19196 1 103.70004 836.800000
19196 19198 19199 1 119.8800511 375.723200
19196 19198 19200 1 120.0200517 532.790560
19199 19198 19200 1 119.8800511 375.723200
19198 19200 19201 1 119.8800511 375.723200
19198 19200 19202 1 120.0200517 532.790560
19201 19200 19202 1 119.8800511 375.723200
19200 19202 19203 1 119.8800511 375.723200
19200 19202 19204 1 120.0200517 532.790560
19203 19202 19204 1 119.8800511 375.723200
19195 19204 19202 1 120.0200517 532.790560
19195 19204 19205 1 119.8800511 375.723200
19202 19204 19205 1 119.8800511 375.723200
19206 19207 19208 1 119.8800511 375.723200
19206 19207 19216 1 119.8800511 375.723200
19208 19207 19216 1 120.0200517 532.790560
19207 19208 19209 1 121.3800518 83.010560
19207 19208 19210 1 120.0200517 532.790560
19209 19208 19210 1 121.3800518 83.010560
1685 19209 7198 1 109.50000 418.400000
1685 19209 10902 1 109.50000 418.400000
1685 19209 19208 1 103.70004 836.800000
7198 19209 10902 1 109.50000 418.400000
7198 19209 19208 1 103.70004 836.800000
10902 19209 19208 1 103.70004 836.800000
19208 19210 19211 1 119.8800511 375.723200
19208 19210 19212 1 120.0200517 532.790560
19211 19210 19212 1 119.8800511 375.723200
19210 19212 19213 1 119.8800511 375.723200
19210 19212 19214 1 120.0200517 532.790560
19213 19212 19214 1 119.8800511 375.723200
19212 19214 19215 1 119.8800511 375.723200
19212 19214 19216 1 120.0200517 532.790560
19215 19214 19216 1 119.8800511 375.723200
19207 19216 19214 1 120.0200517 532.790560
19207 19216 19217 1 119.8800511 375.723200
19214 19216 19217 1 119.8800511 375.723200
19218 19219 19220 1 119.8800511 375.723200
19218 19219 19228 1 119.8800511 375.723200
19220 19219 19228 1 120.0200517 532.790560
19219 19220 19221 1 121.3800518 83.010560
19219 19220 19222 1 120.0200517 532.790560
19221 19220 19222 1 121.3800518 83.010560
1687 19221 1688 1 109.50000 418.400000
1687 19221 8376 1 109.50000 418.400000
1687 19221 19220 1 103.70004 836.800000
1688 19221 8376 1 109.50000 418.400000
1688 19221 19220 1 103.70004 836.800000
8376 19221 19220 1 103.70004 836.800000
19220 19222 19223 1 119.8800511 375.723200
19220 19222 19224 1 120.0200517 532.790560
19223 19222 19224 1 119.8800511 375.723200
19222 19224 19225 1 119.8800511 375.723200
19222 19224 19226 1 120.0200517 532.790560
19225 19224 19226 1 119.8800511 375.723200
19224 19226 19227 1 119.8800511 375.723200
19224 19226 19228 1 120.0200517 532.790560
19227 19226 19228 1 119.8800511 375.723200
19219 19228 19226 1 120.0200517 532.790560
19219 19228 19229 1 119.8800511 375.723200
19226 19228 19229 1 119.8800511 375.723200
19230 19231 19232 1 119.8800511 375.723200
19230 19231 19240 1 119.8800511 375.723200
19232 19231 19240 1 120.0200517 532.790560
19231 19232 19233 1 121.3800518 83.010560
19231 19232 19234 1 120.0200517 532.790560
19233 19232 19234 1 121.3800518 83.010560
1689 19233 1690 1 109.50000 418.400000
1689 19233 1691 1 109.50000 418.400000
1689 19233 19232 1 103.70004 836.800000
1690 19233 1691 1 109.50000 418.400000
1690 19233 19232 1 103.70004 836.800000
1691 19233 19232 1 103.70004 836.800000
19232 19234 19235 1 119.8800511 375.723200
19232 19234 19236 1 120.0200517 532.790560
19235 19234 19236 1 119.8800511 375.723200
19234 19236 19237 1 119.8800511 375.723200
19234 19236 19238 1 120.0200517 532.790560
19237 19236 19238 1 119.8800511 375.723200
19236 19238 19239 1 119.8800511 375.723200
19236 19238 19240 1 120.0200517 532.790560
19239 19238 19240 1 119.8800511 375.723200
19231 19240 19238 1 120.0200517 532.790560
19231 19240 19241 1 119.8800511 375.723200
19238 19240 19241 1 119.8800511 375.723200
19242 19243 19244 1 119.8800511 375.723200
19242 19243 19252 1 119.8800511 375.723200
19244 19243 19252 1 120.0200517 532.790560
19243 19244 19245 1 121.3800518 83.010560
19243 19244 19246 1 120.0200517 532.790560
19245 19244 19246 1 121.3800518 83.010560
374 19245 1718 1 109.50000 418.400000
374 19245 11156 1 109.50000 418.400000
374 19245 19244 1 103.70004 836.800000
1718 19245 11156 1 109.50000 418.400000
1718 19245 19244 1 103.70004 836.800000
11156 19245 19244 1 103.70004 836.800000
19244 19246 19247 1 119.8800511 375.723200
19244 19246 19248 1 120.0200517 532.790560
19247 19246 19248 1 119.8800511 375.723200
19246 19248 19249 1 119.8800511 375.723200
19246 19248 19250 1 120.0200517 532.790560
19249 19248 19250 1 119.8800511 375.723200
19248 19250 19251 1 119.8800511 375.723200
19248 19250 19252 1 120.0200517 532.790560
19251 19250 19252 1 119.8800511 375.723200
19243 19252 19250 1 120.0200517 532.790560
19243 19252 19253 1 119.8800511 375.723200
19250 19252 19253 1 119.8800511 375.723200
19254 19255 19256 1 119.8800511 375.723200
19254 19255 19264 1 119.8800511 375.723200
19256 19255 19264 1 120.0200517 532.790560
19255 19256 19257 1 121.3800518 83.010560
19255 19256 19258 1 120.0200517 532.790560
19257 19256 19258 1 121.3800518 83.010560
1036 19257 1073 1 109.50000 418.400000
1036 19257 1727 1 109.50000 418.400000
1036 19257 19256 1 103.70004 836.800000
1073 19257 1727 1 109.50000 418.400000
1073 19257 19256 1 103.70004 836.800000
1727 19257 19256 1 103.70004 836.800000
19256 19258 19259 1 119.8800511 375.723200
19256 19258 19260 1 120.0200517 532.790560
19259 19258 19260 1 119.8800511 375.723200
19258 19260 19261 1 119.8800511 375.723200
19258 19260 19262 1 120.0200517 532.790560
19261 19260 19262 1 119.8800511 375.723200
19260 19262 19263 1 119.8800511 375.723200
19260 19262 19264 1 120.0200517 532.790560
19263 19262 19264 1 119.8800511 375.723200
19255 19264 19262 1 120.0200517 532.790560
19255 19264 19265 1 119.8800511 375.723200
19262 19264 19265 1 119.8800511 375.723200
19266 19267 19268 1 119.8800511 375.723200
19266 19267 19276 1 119.8800511 375.723200
19268 19267 19276 1 120.0200517 532.790560
19267 19268 19269 1 121.3800518 83.010560
19267 19268 19270 1 120.0200517 532.790560
19269 19268 19270 1 121.3800518 83.010560
1735 19269 1736 1 109.50000 418.400000
1735 19269 1737 1 109.50000 418.400000
1735 19269 19268 1 103.70004 836.800000
1736 19269 1737 1 109.50000 418.400000
1736 19269 19268 1 103.70004 836.800000
1737 19269 19268 1 103.70004 836.800000
19268 19270 19271 1 119.8800511 375.723200
19268 19270 19272 1 120.0200517 532.790560
19271 19270 19272 1 119.8800511 375.723200
19270 19272 19273 1 119.8800511 375.723200
19270 19272 19274 1 120.0200517 532.790560
19273 19272 19274 1 119.8800511 375.723200
19272 19274 19275 1 119.8800511 375.723200
19272 19274 19276 1 120.0200517 532.790560
19275 19274 19276 1 119.8800511 375.723200
19267 19276 19274 1 120.0200517 532.790560
19267 19276 19277 1 119.8800511 375.723200
19274 19276 19277 1 119.8800511 375.723200
19278 19279 19280 1 119.8800511 375.723200
19278 19279 19288 1 119.8800511 375.723200
19280 19279 19288 1 120.0200517 532.790560
19279 19280 19281 1 121.3800518 83.010560
19279 19280 19282 1 120.0200517 532.790560
19281 19280 19282 1 121.3800518 83.010560
1742 19281 8259 1 109.50000 418.400000
1742 19281 11157 1 109.50000 418.400000
1742 19281 19280 1 103.70004 836.800000
8259 19281 11157 1 109.50000 418.400000
8259 19281 19280 1 103.70004 836.800000
11157 19281 19280 1 103.70004 836.800000
19280 19282 19283 1 119.8800511 375.723200
19280 19282 19284 1 120.0200517 532.790560
19283 19282 19284 1 119.8800511 375.723200
19282 19284 19285 1 119.8800511 375.723200
19282 19284 19286 1 120.0200517 532.790560
19285 19284 19286 1 119.8800511 375.723200
19284 19286 19287 1 119.8800511 375.723200
19284 19286 19288 1 120.0200517 532.790560
19287 19286 19288 1 119.8800511 375.723200
19279 19288 19286 1 120.0200517 532.790560
19279 19288 19289 1 119.8800511 375.723200
19286 19288 19289 1 119.8800511 375.723200
19290 19291 19292 1 119.8800511 375.723200
19290 19291 19300 1 119.8800511 375.723200
19292 19291 19300 1 120.0200517 532.790560
19291 19292 19293 1 121.3800518 83.010560
19291 19292 19294 1 120.0200517 532.790560
19293 19292 19294 1 121.3800518 83.010560
1751 19293 1752 1 109.50000 418.400000
1751 19293 1753 1 109.50000 418.400000
1751 19293 19292 1 103.70004 836.800000
1752 19293 1753 1 109.50000 418.400000
1752 19293 19292 1 103.70004 836.800000
1753 19293 19292 1 103.70004 836.800000
19292 19294 19295 1 119.8800511 375.723200
19292 19294 19296 1 120.0200517 532.790560
19295 19294 19296 1 119.8800511 375.723200
19294 19296 19297 1 119.8800511 375.723200
19294 19296 19298 1 120.0200517 532.790560
19297 19296 19298 1 119.8800511 375.723200
19296 19298 19299 1 119.8800511 375.723200
19296 19298 19300 1 120.0200517 532.790560
19299 19298 19300 1 119.8800511 375.723200
19291 19300 19298 1 120.0200517 532.790560
19291 19300 19301 1 119.8800511 375.723200
19298 19300 19301 1 119.8800511 375.723200
19302 19303 19304 1 119.8800511 375.723200
19302 19303 19312 1 119.8800511 375.723200
19304 19303 19312 1 120.0200517 532.790560
19303 19304 19305 1 121.3800518 83.010560
19303 19304 19306 1 120.0200517 532.790560
19305 19304 19306 1 121.3800518 83.010560
1758 19305 1759 1 109.50000 418.400000
1758 19305 1760 1 109.50000 418.400000
1758 19305 19304 1 103.70004 836.800000
1759 19305 1760 1 109.50000 418.400000
1759 19305 19304 1 103.70004 836.800000
1760 19305 19304 1 103.70004 836.800000
19304 19306 19307 1 119.8800511 375.723200
19304 19306 19308 1 120.0200517 532.790560
19307 19306 19308 1 119.8800511 375.723200
19306 19308 19309 1 119.8800511 375.723200
19306 19308 19310 1 120.0200517 532.790560
19309 19308 19310 1 119.8800511 375.723200
19308 19310 19311 1 119.8800511 375.723200
19308 19310 19312 1 120.0200517 532.790560
19311 19310 19312 1 119.8800511 375.723200
19303 19312 19310 1 120.0200517 532.790560
19303 19312 19313 1 119.8800511 375.723200
19310 19312 19313 1 119.8800511 375.723200
19314 19315 19316 1 119.8800511 375.723200
19314 19315 19324 1 119.8800511 375.723200
19316 19315 19324 1 120.0200517 532.790560
19315 19316 19317 1 121.3800518 83.010560
19315 19316 19318 1 120.0200517 532.790560
19317 19316 19318 1 121.3800518 83.010560
1258 19317 1776 1 109.50000 418.400000
1258 19317 1777 1 109.50000 418.400000
1258 19317 19316 1 103.70004 836.800000
1776 19317 1777 1 109.50000 418.400000
1776 19317 19316 1 103.70004 836.800000
1777 19317 19316 1 103.70004 836.800000
19316 19318 19319 1 119.8800511 375.723200
19316 19318 19320 1 120.0200517 532.790560
19319 19318 19320 1 119.8800511 375.723200
19318 19320 19321 1 119.8800511 375.723200
19318 19320 19322 1 120.0200517 532.790560
19321 19320 19322 1 119.8800511 375.723200
19320 19322 19323 1 119.8800511 375.723200
19320 19322 19324 1 120.0200517 532.790560
19323 19322 19324 1 119.8800511 375.723200
19315 19324 19322 1 120.0200517 532.790560
19315 19324 19325 1 119.8800511 375.723200
19322 19324 19325 1 119.8800511 375.723200
19326 19327 19328 1 119.8800511 375.723200
19326 19327 19336 1 119.8800511 375.723200
19328 19327 19336 1 120.0200517 532.790560
19327 19328 19329 1 121.3800518 83.010560
19327 19328 19330 1 120.0200517 532.790560
19329 19328 19330 1 121.3800518 83.010560
1807 19329 1808 1 109.50000 418.400000
1807 19329 11158 1 109.50000 418.400000
1807 19329 19328 1 103.70004 836.800000
1808 19329 11158 1 109.50000 418.400000
1808 19329 19328 1 103.70004 836.800000
11158 19329 19328 1 103.70004 836.800000
19328 19330 19331 1 119.8800511 375.723200
19328 19330 19332 1 120.0200517 532.790560
19331 19330 19332 1 119.8800511 375.723200
19330 19332 19333 1 119.8800511 375.723200
19330 19332 19334 1 120.0200517 532.790560
19333 19332 19334 1 119.8800511 375.723200
19332 19334 19335 1 119.8800511 375.723200
19332 19334 19336 1 120.0200517 532.790560
19335 19334 19336 1 119.8800511 375.723200
19327 19336 19334 1 120.0200517 532.790560
19327 19336 19337 1 119.8800511 375.723200
19334 19336 19337 1 119.8800511 375.723200
19338 19339 19340 1 119.8800511 375.723200
19338 19339 19348 1 119.8800511 375.723200
19340 19339 19348 1 120.0200517 532.790560
19339 19340 19341 1 121.3800518 83.010560
19339 19340 19342 1 120.0200517 532.790560
19341 19340 19342 1 121.3800518 83.010560
1829 19341 1830 1 109.50000 418.400000
1829 19341 1831 1 109.50000 418.400000
1829 19341 19340 1 103.70004 836.800000
1830 19341 1831 1 109.50000 418.400000
1830 19341 19340 1 103.70004 836.800000
1831 19341 19340 1 103.70004 836.800000
19340 19342 19343 1 119.8800511 375.723200
19340 19342 19344 1 120.0200517 532.790560
19343 19342 19344 1 119.8800511 375.723200
19342 19344 19345 1 119.8800511 375.723200
19342 19344 19346 1 120.0200517 532.790560
19345 19344 19346 1 119.8800511 375.723200
19344 19346 19347 1 119.8800511 375.723200
19344 19346 19348 1 120.0200517 532.790560
19347 19346 19348 1 119.8800511 375.723200
19339 19348 19346 1 120.0200517 532.790560
19339 19348 19349 1 119.8800511 375.723200
19346 19348 19349 1 119.8800511 375.723200
19350 19351 19352 1 119.8800511 375.723200
19350 19351 19360 1 119.8800511 375.723200
19352 19351 19360 1 120.0200517 532.790560
19351 19352 19353 1 121.3800518 83.010560
19351 19352 19354 1 120.0200517 532.790560
19353 19352 19354 1 121.3800518 83.010560
1863 19353 1864 1 109.50000 418.400000
1863 19353 1865 1 109.50000 418.400000
1863 19353 19352 1 103.70004 836.800000
1864 19353 1865 1 109.50000 418.400000
1864 19353 19352 1 103.70004 836.800000
1865 19353 19352 1 103.70004 836.800000
19352 19354 19355 1 119.8800511 375.723200
19352 19354 19356 1 120.0200517 532.790560
19355 19354 19356 1 119.8800511 375.723200
19354 19356 19357 1 119.8800511 375.723200
19354 19356 19358 1 120.0200517 532.790560
19357 19356 19358 1 119.8800511 375.723200
19356 19358 19359 1 119.8800511 375.723200
19356 19358 19360 1 120.0200517 532.790560
19359 19358 19360 1 119.8800511 375.723200
19351 19360 19358 1 120.0200517 532.790560
19351 19360 19361 1 119.8800511 375.723200
19358 19360 19361 1 119.8800511 375.723200
19362 19363 19364 1 119.8800511 375.723200
19362 19363 19372 1 119.8800511 375.723200
19364 19363 19372 1 120.0200517 532.790560
19363 19364 19365 1 121.3800518 83.010560
19363 19364 19366 1 120.0200517 532.790560
19365 19364 19366 1 121.3800518 83.010560
1866 19365 1867 1 109.50000 418.400000
1866 19365 11159 1 109.50000 418.400000
1866 19365 19364 1 103.70004 836.800000
1867 19365 11159 1 109.50000 418.400000
1867 19365 19364 1 103.70004 836.800000
11159 19365 19364 1 103.70004 836.800000
19364 19366 19367 1 119.8800511 375.723200
19364 19366 19368 1 120.0200517 532.790560
19367 19366 19368 1 119.8800511 375.723200
19366 19368 19369 1 119.8800511 375.723200
19366 19368 19370 1 120.0200517 532.790560
19369 19368 19370 1 119.8800511 375.723200
19368 19370 19371 1 119.8800511 375.723200
19368 19370 19372 1 120.0200517 532.790560
19371 19370 19372 1 119.8800511 375.723200
19363 19372 19370 1 120.0200517 532.790560
19363 19372 19373 1 119.8800511 375.723200
19370 19372 19373 1 119.8800511 375.723200
19374 19375 19376 1 119.8800511 375.723200
19374 19375 19384 1 119.8800511 375.723200
19376 19375 19384 1 120.0200517 532.790560
19375 19376 19377 1 121.3800518 83.010560
19375 19376 19378 1 120.0200517 532.790560
19377 19376 19378 1 121.3800518 83.010560
1876 19377 1877 1 109.50000 418.400000
1876 19377 1878 1 109.50000 418.400000
1876 19377 19376 1 103.70004 836.800000
1877 19377 1878 1 109.50000 418.400000
1877 19377 19376 1 103.70004 836.800000
1878 19377 19376 1 103.70004 836.800000
19376 19378 19379 1 119.8800511 375.723200
19376 19378 19380 1 120.0200517 532.790560
19379 19378 19380 1 119.8800511 375.723200
19378 19380 19381 1 119.8800511 375.723200
19378 19380 19382 1 120.0200517 532.790560
19381 19380 19382 1 119.8800511 375.723200
19380 19382 19383 1 119.8800511 375.723200
19380 19382 19384 1 120.0200517 532.790560
19383 19382 19384 1 119.8800511 375.723200
19375 19384 19382 1 120.0200517 532.790560
19375 19384 19385 1 119.8800511 375.723200
19382 19384 19385 1 119.8800511 375.723200
19386 19387 19388 1 119.8800511 375.723200
19386 19387 19396 1 119.8800511 375.723200
19388 19387 19396 1 120.0200517 532.790560
19387 19388 19389 1 121.3800518 83.010560
19387 19388 19390 1 120.0200517 532.790560
19389 19388 19390 1 121.3800518 83.010560
1889 19389 1890 1 109.50000 418.400000
1889 19389 1891 1 109.50000 418.400000
1889 19389 19388 1 103.70004 836.800000
1890 19389 1891 1 109.50000 418.400000
1890 19389 19388 1 103.70004 836.800000
1891 19389 19388 1 103.70004 836.800000
19388 19390 19391 1 119.8800511 375.723200
19388 19390 19392 1 120.0200517 532.790560
19391 19390 19392 1 119.8800511 375.723200
19390 19392 19393 1 119.8800511 375.723200
19390 19392 19394 1 120.0200517 532.790560
19393 19392 19394 1 119.8800511 375.723200
19392 19394 19395 1 119.8800511 375.723200
19392 19394 19396 1 120.0200517 532.790560
19395 19394 19396 1 119.8800511 375.723200
19387 19396 19394 1 120.0200517 532.790560
19387 19396 19397 1 119.8800511 375.723200
19394 19396 19397 1 119.8800511 375.723200
19398 19399 19400 1 119.8800511 375.723200
19398 19399 19408 1 119.8800511 375.723200
19400 19399 19408 1 120.0200517 532.790560
19399 19400 19401 1 121.3800518 83.010560
19399 19400 19402 1 120.0200517 532.790560
19401 19400 19402 1 121.3800518 83.010560
1896 19401 1897 1 109.50000 418.400000
1896 19401 3832 1 109.50000 418.400000
1896 19401 19400 1 103.70004 836.800000
1897 19401 3832 1 109.50000 418.400000
1897 19401 19400 1 103.70004 836.800000
3832 19401 19400 1 103.70004 836.800000
19400 19402 19403 1 119.8800511 375.723200
19400 19402 19404 1 120.0200517 532.790560
19403 19402 19404 1 119.8800511 375.723200
19402 19404 19405 1 119.8800511 375.723200
19402 19404 19406 1 120.0200517 532.790560
19405 19404 19406 1 119.8800511 375.723200
19404 19406 19407 1 119.8800511 375.723200
19404 19406 19408 1 120.0200517 532.790560
19407 19406 19408 1 119.8800511 375.723200
19399 19408 19406 1 120.0200517 532.790560
19399 19408 19409 1 119.8800511 375.723200
19406 19408 19409 1 119.8800511 375.723200
19410 19411 19412 1 119.8800511 375.723200
19410 19411 19420 1 119.8800511 375.723200
19412 19411 19420 1 120.0200517 532.790560
19411 19412 19413 1 121.3800518 83.010560
19411 19412 19414 1 120.0200517 532.790560
19413 19412 19414 1 121.3800518 83.010560
2018 19413 2019 1 109.50000 418.400000
2018 19413 11160 1 109.50000 418.400000
2018 19413 19412 1 103.70004 836.800000
2019 19413 11160 1 109.50000 418.400000
2019 19413 19412 1 103.70004 836.800000
11160 19413 19412 1 103.70004 836.800000
19412 19414 19415 1 119.8800511 375.723200
19412 19414 19416 1 120.0200517 532.790560
19415 19414 19416 1 119.8800511 375.723200
19414 19416 19417 1 119.8800511 375.723200
19414 19416 19418 1 120.0200517 532.790560
19417 19416 19418 1 119.8800511 375.723200
19416 19418 19419 1 119.8800511 375.723200
19416 19418 19420 1 120.0200517 532.790560
19419 19418 19420 1 119.8800511 375.723200
19411 19420 19418 1 120.0200517 532.790560
19411 19420 19421 1 119.8800511 375.723200
19418 19420 19421 1 119.8800511 375.723200
19422 19423 19424 1 119.8800511 375.723200
19422 19423 19432 1 119.8800511 375.723200
19424 19423 19432 1 120.0200517 532.790560
19423 19424 19425 1 121.3800518 83.010560
19423 19424 19426 1 120.0200517 532.790560
19425 19424 19426 1 121.3800518 83.010560
255 19425 2027 1 109.50000 418.400000
255 19425 2028 1 109.50000 418.400000
255 19425 19424 1 103.70004 836.800000
2027 19425 2028 1 109.50000 418.400000
2027 19425 19424 1 103.70004 836.800000
2028 19425 19424 1 103.70004 836.800000
19424 19426 19427 1 119.8800511 375.723200
19424 19426 19428 1 120.0200517 532.790560
19427 19426 19428 1 119.8800511 375.723200
19426 19428 19429 1 119.8800511 375.723200
19426 19428 19430 1 120.0200517 532.790560
19429 19428 19430 1 119.8800511 375.723200
19428 19430 19431 1 119.8800511 375.723200
19428 19430 19432 1 120.0200517 532.790560
19431 19430 19432 1 119.8800511 375.723200
19423 19432 19430 1 120.0200517 532.790560
19423 19432 19433 1 119.8800511 375.723200
19430 19432 19433 1 119.8800511 375.723200
19434 19435 19436 1 119.8800511 375.723200
19434 19435 19444 1 119.8800511 375.723200
19436 19435 19444 1 120.0200517 532.790560
19435 19436 19437 1 121.3800518 83.010560
19435 19436 19438 1 120.0200517 532.790560
19437 19436 19438 1 121.3800518 83.010560
1372 19437 2041 1 109.50000 418.400000
1372 19437 2042 1 109.50000 418.400000
1372 19437 19436 1 103.70004 836.800000
2041 19437 2042 1 109.50000 418.400000
2041 19437 19436 1 103.70004 836.800000
2042 19437 19436 1 103.70004 836.800000
19436 19438 19439 1 119.8800511 375.723200
19436 19438 19440 1 120.0200517 532.790560
19439 19438 19440 1 119.8800511 375.723200
19438 19440 19441 1 119.8800511 375.723200
19438 19440 19442 1 120.0200517 532.790560
19441 19440 19442 1 119.8800511 375.723200
19440 19442 19443 1 119.8800511 375.723200
19440 19442 19444 1 120.0200517 532.790560
19443 19442 19444 1 119.8800511 375.723200
19435 19444 19442 1 120.0200517 532.790560
19435 19444 19445 1 119.8800511 375.723200
19442 19444 19445 1 119.8800511 375.723200
19446 19447 19448 1 119.8800511 375.723200
19446 19447 19456 1 119.8800511 375.723200
19448 19447 19456 1 120.0200517 532.790560
19447 19448 19449 1 121.3800518 83.010560
19447 19448 19450 1 120.0200517 532.790560
19449 19448 19450 1 121.3800518 83.010560
2043 19449 2044 1 109.50000 418.400000
2043 19449 2045 1 109.50000 418.400000
2043 19449 19448 1 103.70004 836.800000
2044 19449 2045 1 109.50000 418.400000
2044 19449 19448 1 103.70004 836.800000
2045 19449 19448 1 103.70004 836.800000
19448 19450 19451 1 119.8800511 375.723200
19448 19450 19452 1 120.0200517 532.790560
19451 19450 19452 1 119.8800511 375.723200
19450 19452 19453 1 119.8800511 375.723200
19450 19452 19454 1 120.0200517 532.790560
19453 19452 19454 1 119.8800511 375.723200
19452 19454 19455 1 119.8800511 375.723200
19452 19454 19456 1 120.0200517 532.790560
19455 19454 19456 1 119.8800511 375.723200
19447 19456 19454 1 120.0200517 532.790560
19447 19456 19457 1 119.8800511 375.723200
19454 19456 19457 1 119.8800511 375.723200
19458 19459 19460 1 119.8800511 375.723200
19458 19459 19468 1 119.8800511 375.723200
19460 19459 19468 1 120.0200517 532.790560
19459 19460 19461 1 121.3800518 83.010560
19459 19460 19462 1 120.0200517 532.790560
19461 19460 19462 1 121.3800518 83.010560
2046 19461 2047 1 109.50000 418.400000
2046 19461 2048 1 109.50000 418.400000
2046 19461 19460 1 103.70004 836.800000
2047 19461 2048 1 109.50000 418.400000
2047 19461 19460 1 103.70004 836.800000
2048 19461 19460 1 103.70004 836.800000
19460 19462 19463 1 119.8800511 375.723200
19460 19462 19464 1 120.0200517 532.790560
19463 19462 19464 1 119.8800511 375.723200
19462 19464 19465 1 119.8800511 375.723200
19462 19464 19466 1 120.0200517 532.790560
19465 19464 19466 1 119.8800511 375.723200
19464 19466 19467 1 119.8800511 375.723200
19464 19466 19468 1 120.0200517 532.790560
19467 19466 19468 1 119.8800511 375.723200
19459 19468 19466 1 120.0200517 532.790560
19459 19468 19469 1 119.8800511 375.723200
19466 19468 19469 1 119.8800511 375.723200
19470 19471 19472 1 119.8800511 375.723200
19470 19471 19480 1 119.8800511 375.723200
19472 19471 19480 1 120.0200517 532.790560
19471 19472 19473 1 121.3800518 83.010560
19471 19472 19474 1 120.0200517 532.790560
19473 19472 19474 1 121.3800518 83.010560
1986 19473 2066 1 109.50000 418.400000
1986 19473 11175 1 109.50000 418.400000
1986 19473 19472 1 103.70004 836.800000
2066 19473 11175 1 109.50000 418.400000
2066 19473 19472 1 103.70004 836.800000
11175 19473 19472 1 103.70004 836.800000
19472 19474 19475 1 119.8800511 375.723200
19472 19474 19476 1 120.0200517 532.790560
19475 19474 19476 1 119.8800511 375.723200
19474 19476 19477 1 119.8800511 375.723200
19474 19476 19478 1 120.0200517 532.790560
19477 19476 19478 1 119.8800511 375.723200
19476 19478 19479 1 119.8800511 375.723200
19476 19478 19480 1 120.0200517 532.790560
19479 19478 19480 1 119.8800511 375.723200
19471 19480 19478 1 120.0200517 532.790560
19471 19480 19481 1 119.8800511 375.723200
19478 19480 19481 1 119.8800511 375.723200
19482 19483 19484 1 119.8800511 375.723200
19482 19483 19492 1 119.8800511 375.723200
19484 19483 19492 1 120.0200517 532.790560
19483 19484 19485 1 121.3800518 83.010560
19483 19484 19486 1 120.0200517 532.790560
19485 19484 19486 1 121.3800518 83.010560
741 19485 2096 1 109.50000 418.400000
741 19485 2097 1 109.50000 418.400000
741 19485 19484 1 103.70004 836.800000
2096 19485 2097 1 109.50000 418.400000
2096 19485 19484 1 103.70004 836.800000
2097 19485 19484 1 103.70004 836.800000
19484 19486 19487 1 119.8800511 375.723200
19484 19486 19488 1 120.0200517 532.790560
19487 19486 19488 1 119.8800511 375.723200
19486 19488 19489 1 119.8800511 375.723200
19486 19488 19490 1 120.0200517 532.790560
19489 19488 19490 1 119.8800511 375.723200
19488 19490 19491 1 119.8800511 375.723200
19488 19490 19492 1 120.0200517 532.790560
19491 19490 19492 1 119.8800511 375.723200
19483 19492 19490 1 120.0200517 532.790560
19483 19492 19493 1 119.8800511 375.723200
19490 19492 19493 1 119.8800511 375.723200
19494 19495 19496 1 119.8800511 375.723200
19494 19495 19504 1 119.8800511 375.723200
19496 19495 19504 1 120.0200517 532.790560
19495 19496 19497 1 121.3800518 83.010560
19495 19496 19498 1 120.0200517 532.790560
19497 19496 19498 1 121.3800518 83.010560
2148 19497 7897 1 109.50000 418.400000
2148 19497 11153 1 109.50000 418.400000
2148 19497 19496 1 103.70004 836.800000
7897 19497 11153 1 109.50000 418.400000
7897 19497 19496 1 103.70004 836.800000
11153 19497 19496 1 103.70004 836.800000
19496 19498 19499 1 119.8800511 375.723200
19496 19498 19500 1 120.0200517 532.790560
19499 19498 19500 1 119.8800511 375.723200
19498 19500 19501 1 119.8800511 375.723200
19498 19500 19502 1 120.0200517 532.790560
19501 19500 19502 1 119.8800511 375.723200
19500 19502 19503 1 119.8800511 375.723200
19500 19502 19504 1 120.0200517 532.790560
19503 19502 19504 1 119.8800511 375.723200
19495 19504 19502 1 120.0200517 532.790560
19495 19504 19505 1 119.8800511 375.723200
19502 19504 19505 1 119.8800511 375.723200
19506 19507 19508 1 119.8800511 375.723200
19506 19507 19516 1 119.8800511 375.723200
19508 19507 19516 1 120.0200517 532.790560
19507 19508 19509 1 121.3800518 83.010560
19507 19508 19510 1 120.0200517 532.790560
19509 19508 19510 1 121.3800518 83.010560
1566 19509 2159 1 109.50000 418.400000
1566 19509 2160 1 109.50000 418.400000
1566 19509 19508 1 103.70004 836.800000
2159 19509 2160 1 109.50000 418.400000
2159 19509 19508 1 103.70004 836.800000
2160 19509 19508 1 103.70004 836.800000
19508 19510 19511 1 119.8800511 375.723200
19508 19510 19512 1 120.0200517 532.790560
19511 19510 19512 1 119.8800511 375.723200
19510 19512 19513 1 119.8800511 375.723200
19510 19512 19514 1 120.0200517 532.790560
19513 19512 19514 1 119.8800511 375.723200
19512 19514 19515 1 119.8800511 375.723200
19512 19514 19516 1 120.0200517 532.790560
19515 19514 19516 1 119.8800511 375.723200
19507 19516 19514 1 120.0200517 532.790560
19507 19516 19517 1 119.8800511 375.723200
19514 19516 19517 1 119.8800511 375.723200
19518 19519 19520 1 119.8800511 375.723200
19518 19519 19528 1 119.8800511 375.723200
19520 19519 19528 1 120.0200517 532.790560
19519 19520 19521 1 121.3800518 83.010560
19519 19520 19522 1 120.0200517 532.790560
19521 19520 19522 1 121.3800518 83.010560
2161 19521 2162 1 109.50000 418.400000
2161 19521 2164 1 109.50000 418.400000
2161 19521 19520 1 103.70004 836.800000
2162 19521 2164 1 109.50000 418.400000
2162 19521 19520 1 103.70004 836.800000
2164 19521 19520 1 103.70004 836.800000
19520 19522 19523 1 119.8800511 375.723200
19520 19522 19524 1 120.0200517 532.790560
19523 19522 19524 1 119.8800511 375.723200
19522 19524 19525 1 119.8800511 375.723200
19522 19524 19526 1 120.0200517 532.790560
19525 19524 19526 1 119.8800511 375.723200
19524 19526 19527 1 119.8800511 375.723200
19524 19526 19528 1 120.0200517 532.790560
19527 19526 19528 1 119.8800511 375.723200
19519 19528 19526 1 120.0200517 532.790560
19519 19528 19529 1 119.8800511 375.723200
19526 19528 19529 1 119.8800511 375.723200
19530 19531 19532 1 119.8800511 375.723200
19530 19531 19540 1 119.8800511 375.723200
19532 19531 19540 1 120.0200517 532.790560
19531 19532 19533 1 121.3800518 83.010560
19531 19532 19534 1 120.0200517 532.790560
19533 19532 19534 1 121.3800518 83.010560
2165 19533 2166 1 109.50000 418.400000
2165 19533 9001 1 109.50000 418.400000
2165 19533 19532 1 103.70004 836.800000
2166 19533 9001 1 109.50000 418.400000
2166 19533 19532 1 103.70004 836.800000
9001 19533 19532 1 103.70004 836.800000
19532 19534 19535 1 119.8800511 375.723200
19532 19534 19536 1 120.0200517 532.790560
19535 19534 19536 1 119.8800511 375.723200
19534 19536 19537 1 119.8800511 375.723200
19534 19536 19538 1 120.0200517 532.790560
19537 19536 19538 1 119.8800511 375.723200
19536 19538 19539 1 119.8800511 375.723200
19536 19538 19540 1 120.0200517 532.790560
19539 19538 19540 1 119.8800511 375.723200
19531 19540 19538 1 120.0200517 532.790560
19531 19540 19541 1 119.8800511 375.723200
19538 19540 19541 1 119.8800511 375.723200
19542 19543 19544 1 119.8800511 375.723200
19542 19543 19552 1 119.8800511 375.723200
19544 19543 19552 1 120.0200517 532.790560
19543 19544 19545 1 121.3800518 83.010560
19543 19544 19546 1 120.0200517 532.790560
19545 19544 19546 1 121.3800518 83.010560
2200 19545 2201 1 109.50000 418.400000
2200 19545 11161 1 109.50000 418.400000
2200 19545 19544 1 103.70004 836.800000
2201 19545 11161 1 109.50000 418.400000
2201 19545 19544 1 103.70004 836.800000
11161 19545 19544 1 103.70004 836.800000
19544 19546 19547 1 119.8800511 375.723200
19544 19546 19548 1 120.0200517 532.790560
19547 19546 19548 1 119.8800511 375.723200
19546 19548 19549 1 119.8800511 375.723200
19546 19548 19550 1 120.0200517 532.790560
19549 19548 19550 1 119.8800511 375.723200
19548 19550 19551 1 119.8800511 375.723200
19548 19550 19552 1 120.0200517 532.790560
19551 19550 19552 1 119.8800511 375.723200
19543 19552 19550 1 120.0200517 532.790560
19543 19552 19553 1 119.8800511 375.723200
19550 19552 19553 1 119.8800511 375.723200
19554 19555 19556 1 119.8800511 375.723200
19554 19555 19564 1 119.8800511 375.723200
19556 19555 19564 1 120.0200517 532.790560
19555 19556 19557 1 121.3800518 83.010560
19555 19556 19558 1 120.0200517 532.790560
19557 19556 19558 1 121.3800518 83.010560
450 19557 2216 1 109.50000 418.400000
450 19557 2217 1 109.50000 418.400000
450 19557 19556 1 103.70004 836.800000
2216 19557 2217 1 109.50000 418.400000
2216 19557 19556 1 103.70004 836.800000
2217 19557 19556 1 103.70004 836.800000
19556 19558 19559 1 119.8800511 375.723200
19556 19558 19560 1 120.0200517 532.790560
19559 19558 19560 1 119.8800511 375.723200
19558 19560 19561 1 119.8800511 375.723200
19558 19560 19562 1 120.0200517 532.790560
19561 19560 19562 1 119.8800511 375.723200
19560 19562 19563 1 119.8800511 375.723200
19560 19562 19564 1 120.0200517 532.790560
19563 19562 19564 1 119.8800511 375.723200
19555 19564 19562 1 120.0200517 532.790560
19555 19564 19565 1 119.8800511 375.723200
19562 19564 19565 1 119.8800511 375.723200
19566 19567 19568 1 119.8800511 375.723200
19566 19567 19576 1 119.8800511 375.723200
19568 19567 19576 1 120.0200517 532.790560
19567 19568 19569 1 121.3800518 83.010560
19567 19568 19570 1 120.0200517 532.790560
19569 19568 19570 1 121.3800518 83.010560
2233 19569 2234 1 109.50000 418.400000
2233 19569 11177 1 109.50000 418.400000
2233 19569 19568 1 103.70004 836.800000
2234 19569 11177 1 109.50000 418.400000
2234 19569 19568 1 103.70004 836.800000
11177 19569 19568 1 103.70004 836.800000
19568 19570 19571 1 119.8800511 375.723200
19568 19570 19572 1 120.0200517 532.790560
19571 19570 19572 1 119.8800511 375.723200
19570 19572 19573 1 119.8800511 375.723200
19570 19572 19574 1 120.0200517 532.790560
19573 19572 19574 1 119.8800511 375.723200
19572 19574 19575 1 119.8800511 375.723200
19572 19574 19576 1 120.0200517 532.790560
19575 19574 19576 1 119.8800511 375.723200
19567 19576 19574 1 120.0200517 532.790560
19567 19576 19577 1 119.8800511 375.723200
19574 19576 19577 1 119.8800511 375.723200
19578 19579 19580 1 119.8800511 375.723200
19578 19579 19588 1 119.8800511 375.723200
19580 19579 19588 1 120.0200517 532.790560
19579 19580 19581 1 121.3800518 83.010560
19579 19580 19582 1 120.0200517 532.790560
19581 19580 19582 1 121.3800518 83.010560
377 19581 1381 1 109.50000 418.400000
377 19581 2295 1 109.50000 418.400000
377 19581 19580 1 103.70004 836.800000
1381 19581 2295 1 109.50000 418.400000
1381 19581 19580 1 103.70004 836.800000
2295 19581 19580 1 103.70004 836.800000
19580 19582 19583 1 119.8800511 375.723200
19580 19582 19584 1 120.0200517 532.790560
19583 19582 19584 1 119.8800511 375.723200
19582 19584 19585 1 119.8800511 375.723200
19582 19584 19586 1 120.0200517 532.790560
19585 19584 19586 1 119.8800511 375.723200
19584 19586 19587 1 119.8800511 375.723200
19584 19586 19588 1 120.0200517 532.790560
19587 19586 19588 1 119.8800511 375.723200
19579 19588 19586 1 120.0200517 532.790560
19579 19588 19589 1 119.8800511 375.723200
19586 19588 19589 1 119.8800511 375.723200
19590 19591 19592 1 119.8800511 375.723200
19590 19591 19600 1 119.8800511 375.723200
19592 19591 19600 1 120.0200517 532.790560
19591 19592 19593 1 121.3800518 83.010560
19591 19592 19594 1 120.0200517 532.790560
19593 19592 19594 1 121.3800518 83.010560
2296 19593 2297 1 109.50000 418.400000
2296 19593 2298 1 109.50000 418.400000
2296 19593 19592 1 103.70004 836.800000
2297 19593 2298 1 109.50000 418.400000
2297 19593 19592 1 103.70004 836.800000
2298 19593 19592 1 103.70004 836.800000
19592 19594 19595 1 119.8800511 375.723200
19592 19594 19596 1 120.0200517 532.790560
19595 19594 19596 1 119.8800511 375.723200
19594 19596 19597 1 119.8800511 375.723200
19594 19596 19598 1 120.0200517 532.790560
19597 19596 19598 1 119.8800511 375.723200
19596 19598 19599 1 119.8800511 375.723200
19596 19598 19600 1 120.0200517 532.790560
19599 19598 19600 1 119.8800511 375.723200
19591 19600 19598 1 120.0200517 532.790560
19591 19600 19601 1 119.8800511 375.723200
19598 19600 19601 1 119.8800511 375.723200
19602 19603 19604 1 119.8800511 375.723200
19602 19603 19612 1 119.8800511 375.723200
19604 19603 19612 1 120.0200517 532.790560
19603 19604 19605 1 121.3800518 83.010560
19603 19604 19606 1 120.0200517 532.790560
19605 19604 19606 1 121.3800518 83.010560
845 19605 2299 1 109.50000 418.400000
845 19605 11178 1 109.50000 418.400000
845 19605 19604 1 103.70004 836.800000
2299 19605 11178 1 109.50000 418.400000
2299 19605 19604 1 103.70004 836.800000
11178 19605 19604 1 103.70004 836.800000
19604 19606 19607 1 119.8800511 375.723200
19604 19606 19608 1 120.0200517 532.790560
19607 19606 19608 1 119.8800511 375.723200
19606 19608 19609 1 119.8800511 375.723200
19606 19608 19610 1 120.0200517 532.790560
19609 19608 19610 1 119.8800511 375.723200
19608 19610 19611 1 119.8800511 375.723200
19608 19610 19612 1 120.0200517 532.790560
19611 19610 19612 1 119.8800511 375.723200
19603 19612 19610 1 120.0200517 532.790560
19603 19612 19613 1 119.8800511 375.723200
19610 19612 19613 1 119.8800511 375.723200
19614 19615 19616 1 119.8800511 375.723200
19614 19615 19624 1 119.8800511 375.723200
19616 19615 19624 1 120.0200517 532.790560
19615 19616 19617 1 121.3800518 83.010560
19615 19616 19618 1 120.0200517 532.790560
19617 19616 19618 1 121.3800518 83.010560
142 19617 696 1 109.50000 418.400000
142 19617 2304 1 109.50000 418.400000
142 19617 19616 1 103.70004 836.800000
696 19617 2304 1 109.50000 418.400000
696 19617 19616 1 103.70004 836.800000
2304 19617 19616 1 103.70004 836.800000
19616 19618 19619 1 119.8800511 375.723200
19616 19618 19620 1 120.0200517 532.790560
19619 19618 19620 1 119.8800511 375.723200
19618 19620 19621 1 119.8800511 375.723200
19618 19620 19622 1 120.0200517 532.790560
19621 19620 19622 1 119.8800511 375.723200
19620 19622 19623 1 119.8800511 375.723200
19620 19622 19624 1 120.0200517 532.790560
19623 19622 19624 1 119.8800511 375.723200
19615 19624 19622 1 120.0200517 532.790560
19615 19624 19625 1 119.8800511 375.723200
19622 19624 19625 1 119.8800511 375.723200
19626 19627 19628 1 119.8800511 375.723200
19626 19627 19636 1 119.8800511 375.723200
19628 19627 19636 1 120.0200517 532.790560
19627 19628 19629 1 121.3800518 83.010560
19627 19628 19630 1 120.0200517 532.790560
19629 19628 19630 1 121.3800518 83.010560
320 19629 1044 1 109.50000 418.400000
320 19629 11162 1 109.50000 418.400000
320 19629 19628 1 103.70004 836.800000
1044 19629 11162 1 109.50000 418.400000
1044 19629 19628 1 103.70004 836.800000
11162 19629 19628 1 103.70004 836.800000
19628 19630 19631 1 119.8800511 375.723200
19628 19630 19632 1 120.0200517 532.790560
19631 19630 19632 1 119.8800511 375.723200
19630 19632 19633 1 119.8800511 375.723200
19630 19632 19634 1 120.0200517 532.790560
19633 19632 19634 1 119.8800511 375.723200
19632 19634 19635 1 119.8800511 375.723200
19632 19634 19636 1 120.0200517 532.790560
19635 19634 19636 1 119.8800511 375.723200
19627 19636 19634 1 120.0200517 532.790560
19627 19636 19637 1 119.8800511 375.723200
19634 19636 19637 1 119.8800511 375.723200
19638 19639 19640 1 119.8800511 375.723200
19638 19639 19648 1 119.8800511 375.723200
19640 19639 19648 1 120.0200517 532.790560
19639 19640 19641 1 121.3800518 83.010560
19639 19640 19642 1 120.0200517 532.790560
19641 19640 19642 1 121.3800518 83.010560
2324 19641 2325 1 109.50000 418.400000
2324 19641 11179 1 109.50000 418.400000
2324 19641 19640 1 103.70004 836.800000
2325 19641 11179 1 109.50000 418.400000
2325 19641 19640 1 103.70004 836.800000
11179 19641 19640 1 103.70004 836.800000
19640 19642 19643 1 119.8800511 375.723200
19640 19642 19644 1 120.0200517 532.790560
19643 19642 19644 1 119.8800511 375.723200
19642 19644 19645 1 119.8800511 375.723200
19642 19644 19646 1 120.0200517 532.790560
19645 19644 19646 1 119.8800511 375.723200
19644 19646 19647 1 119.8800511 375.723200
19644 19646 19648 1 120.0200517 532.790560
19647 19646 19648 1 119.8800511 375.723200
19639 19648 19646 1 120.0200517 532.790560
19639 19648 19649 1 119.8800511 375.723200
19646 19648 19649 1 119.8800511 375.723200
19650 19651 19652 1 119.8800511 375.723200
19650 19651 19660 1 119.8800511 375.723200
19652 19651 19660 1 120.0200517 532.790560
19651 19652 19653 1 121.3800518 83.010560
19651 19652 19654 1 120.0200517 532.790560
19653 19652 19654 1 121.3800518 83.010560
1022 19653 2429 1 109.50000 418.400000
1022 19653 2430 1 109.50000 418.400000
1022 19653 19652 1 103.70004 836.800000
2429 19653 2430 1 109.50000 418.400000
2429 19653 19652 1 103.70004 836.800000
2430 19653 19652 1 103.70004 836.800000
19652 19654 19655 1 119.8800511 375.723200
19652 19654 19656 1 120.0200517 532.790560
19655 19654 19656 1 119.8800511 375.723200
19654 19656 19657 1 119.8800511 375.723200
19654 19656 19658 1 120.0200517 532.790560
19657 19656 19658 1 119.8800511 375.723200
19656 19658 19659 1 119.8800511 375.723200
19656 19658 19660 1 120.0200517 532.790560
19659 19658 19660 1 119.8800511 375.723200
19651 19660 19658 1 120.0200517 532.790560
19651 19660 19661 1 119.8800511 375.723200
19658 19660 19661 1 119.8800511 375.723200
19662 19663 19664 1 119.8800511 375.723200
19662 19663 19672 1 119.8800511 375.723200
19664 19663 19672 1 120.0200517 532.790560
19663 19664 19665 1 121.3800518 83.010560
19663 19664 19666 1 120.0200517 532.790560
19665 19664 19666 1 121.3800518 83.010560
260 19665 2431 1 109.50000 418.400000
260 19665 2433 1 109.50000 418.400000
260 19665 19664 1 103.70004 836.800000
2431 19665 2433 1 109.50000 418.400000
2431 19665 19664 1 103.70004 836.800000
2433 19665 19664 1 103.70004 836.800000
19664 19666 19667 1 119.8800511 375.723200
19664 19666 19668 1 120.0200517 532.790560
19667 19666 19668 1 119.8800511 375.723200
19666 19668 19669 1 119.8800511 375.723200
19666 19668 19670 1 120.0200517 532.790560
19669 19668 19670 1 119.8800511 375.723200
19668 19670 19671 1 119.8800511 375.723200
19668 19670 19672 1 120.0200517 532.790560
19671 19670 19672 1 119.8800511 375.723200
19663 19672 19670 1 120.0200517 532.790560
19663 19672 19673 1 119.8800511 375.723200
19670 19672 19673 1 119.8800511 375.723200
19674 19675 19676 1 119.8800511 375.723200
19674 19675 19684 1 119.8800511 375.723200
19676 19675 19684 1 120.0200517 532.790560
19675 19676 19677 1 121.3800518 83.010560
19675 19676 19678 1 120.0200517 532.790560
19677 19676 19678 1 121.3800518 83.010560
2450 19677 2451 1 109.50000 418.400000
2450 19677 2452 1 109.50000 418.400000
2450 19677 19676 1 103.70004 836.800000
2451 19677 2452 1 109.50000 418.400000
2451 19677 19676 1 103.70004 836.800000
2452 19677 19676 1 103.70004 836.800000
19676 19678 19679 1 119.8800511 375.723200
19676 19678 19680 1 120.0200517 532.790560
19679 19678 19680 1 119.8800511 375.723200
19678 19680 19681 1 119.8800511 375.723200
19678 19680 19682 1 120.0200517 532.790560
19681 19680 19682 1 119.8800511 375.723200
19680 19682 19683 1 119.8800511 375.723200
19680 19682 19684 1 120.0200517 532.790560
19683 19682 19684 1 119.8800511 375.723200
19675 19684 19682 1 120.0200517 532.790560
19675 19684 19685 1 119.8800511 375.723200
19682 19684 19685 1 119.8800511 375.723200
19686 19687 19688 1 119.8800511 375.723200
19686 19687 19696 1 119.8800511 375.723200
19688 19687 19696 1 120.0200517 532.790560
19687 19688 19689 1 121.3800518 83.010560
19687 19688 19690 1 120.0200517 532.790560
19689 19688 19690 1 121.3800518 83.010560
2456 19689 2457 1 109.50000 418.400000
2456 19689 11163 1 109.50000 418.400000
2456 19689 19688 1 103.70004 836.800000
2457 19689 11163 1 109.50000 418.400000
2457 19689 19688 1 103.70004 836.800000
11163 19689 19688 1 103.70004 836.800000
19688 19690 19691 1 119.8800511 375.723200
19688 19690 19692 1 120.0200517 532.790560
19691 19690 19692 1 119.8800511 375.723200
19690 19692 19693 1 119.8800511 375.723200
19690 19692 19694 1 120.0200517 532.790560
19693 19692 19694 1 119.8800511 375.723200
19692 19694 19695 1 119.8800511 375.723200
19692 19694 19696 1 120.0200517 532.790560
19695 19694 19696 1 119.8800511 375.723200
19687 19696 19694 1 120.0200517 532.790560
19687 19696 19697 1 119.8800511 375.723200
19694 19696 19697 1 119.8800511 375.723200
19698 19699 19700 1 119.8800511 375.723200
19698 19699 19708 1 119.8800511 375.723200
19700 19699 19708 1 120.0200517 532.790560
19699 19700 19701 1 121.3800518 83.010560
19699 19700 19702 1 120.0200517 532.790560
19701 19700 19702 1 121.3800518 83.010560
2462 19701 2463 1 109.50000 418.400000
2462 19701 11164 1 109.50000 418.400000
2462 19701 19700 1 103.70004 836.800000
2463 19701 11164 1 109.50000 418.400000
2463 19701 19700 1 103.70004 836.800000
11164 19701 19700 1 103.70004 836.800000
19700 19702 19703 1 119.8800511 375.723200
19700 19702 19704 1 120.0200517 532.790560
19703 19702 19704 1 119.8800511 375.723200
19702 19704 19705 1 119.8800511 375.723200
19702 19704 19706 1 120.0200517 532.790560
19705 19704 19706 1 119.8800511 375.723200
19704 19706 19707 1 119.8800511 375.723200
19704 19706 19708 1 120.0200517 532.790560
19707 19706 19708 1 119.8800511 375.723200
19699 19708 19706 1 120.0200517 532.790560
19699 19708 19709 1 119.8800511 375.723200
19706 19708 19709 1 119.8800511 375.723200
19710 19711 19712 1 119.8800511 375.723200
19710 19711 19720 1 119.8800511 375.723200
19712 19711 19720 1 120.0200517 532.790560
19711 19712 19713 1 121.3800518 83.010560
19711 19712 19714 1 120.0200517 532.790560
19713 19712 19714 1 121.3800518 83.010560
2483 19713 2484 1 109.50000 418.400000
2483 19713 2485 1 109.50000 418.400000
2483 19713 19712 1 103.70004 836.800000
2484 19713 2485 1 109.50000 418.400000
2484 19713 19712 1 103.70004 836.800000
2485 19713 19712 1 103.70004 836.800000
19712 19714 19715 1 119.8800511 375.723200
19712 19714 19716 1 120.0200517 532.790560
19715 19714 19716 1 119.8800511 375.723200
19714 19716 19717 1 119.8800511 375.723200
19714 19716 19718 1 120.0200517 532.790560
19717 19716 19718 1 119.8800511 375.723200
19716 19718 19719 1 119.8800511 375.723200
19716 19718 19720 1 120.0200517 532.790560
19719 19718 19720 1 119.8800511 375.723200
19711 19720 19718 1 120.0200517 532.790560
19711 19720 19721 1 119.8800511 375.723200
19718 19720 19721 1 119.8800511 375.723200
19722 19723 19724 1 119.8800511 375.723200
19722 19723 19732 1 119.8800511 375.723200
19724 19723 19732 1 120.0200517 532.790560
19723 19724 19725 1 121.3800518 83.010560
19723 19724 19726 1 120.0200517 532.790560
19725 19724 19726 1 121.3800518 83.010560
2493 19725 2494 1 109.50000 418.400000
2493 19725 2495 1 109.50000 418.400000
2493 19725 19724 1 103.70004 836.800000
2494 19725 2495 1 109.50000 418.400000
2494 19725 19724 1 103.70004 836.800000
2495 19725 19724 1 103.70004 836.800000
19724 19726 19727 1 119.8800511 375.723200
19724 19726 19728 1 120.0200517 532.790560
19727 19726 19728 1 119.8800511 375.723200
19726 19728 19729 1 119.8800511 375.723200
19726 19728 19730 1 120.0200517 532.790560
19729 19728 19730 1 119.8800511 375.723200
19728 19730 19731 1 119.8800511 375.723200
19728 19730 19732 1 120.0200517 532.790560
19731 19730 19732 1 119.8800511 375.723200
19723 19732 19730 1 120.0200517 532.790560
19723 19732 19733 1 119.8800511 375.723200
19730 19732 19733 1 119.8800511 375.723200
19734 19735 19736 1 119.8800511 375.723200
19734 19735 19744 1 119.8800511 375.723200
19736 19735 19744 1 120.0200517 532.790560
19735 19736 19737 1 121.3800518 83.010560
19735 19736 19738 1 120.0200517 532.790560
19737 19736 19738 1 121.3800518 83.010560
2500 19737 2501 1 109.50000 418.400000
2500 19737 11165 1 109.50000 418.400000
2500 19737 19736 1 103.70004 836.800000
2501 19737 11165 1 109.50000 418.400000
2501 19737 19736 1 103.70004 836.800000
11165 19737 19736 1 103.70004 836.800000
19736 19738 19739 1 119.8800511 375.723200
19736 19738 19740 1 120.0200517 532.790560
19739 19738 19740 1 119.8800511 375.723200
19738 19740 19741 1 119.8800511 375.723200
19738 19740 19742 1 120.0200517 532.790560
19741 19740 19742 1 119.8800511 375.723200
19740 19742 19743 1 119.8800511 375.723200
19740 19742 19744 1 120.0200517 532.790560
19743 19742 19744 1 119.8800511 375.723200
19735 19744 19742 1 120.0200517 532.790560
19735 19744 19745 1 119.8800511 375.723200
19742 19744 19745 1 119.8800511 375.723200
19746 19747 19748 1 119.8800511 375.723200
19746 19747 19756 1 119.8800511 375.723200
19748 19747 19756 1 120.0200517 532.790560
19747 19748 19749 1 121.3800518 83.010560
19747 19748 19750 1 120.0200517 532.790560
19749 19748 19750 1 121.3800518 83.010560
2505 19749 2506 1 109.50000 418.400000
2505 19749 5440 1 109.50000 418.400000
2505 19749 19748 1 103.70004 836.800000
2506 19749 5440 1 109.50000 418.400000
2506 19749 19748 1 103.70004 836.800000
5440 19749 19748 1 103.70004 836.800000
19748 19750 19751 1 119.8800511 375.723200
19748 19750 19752 1 120.0200517 532.790560
19751 19750 19752 1 119.8800511 375.723200
19750 19752 19753 1 119.8800511 375.723200
19750 19752 19754 1 120.0200517 532.790560
19753 19752 19754 1 119.8800511 375.723200
19752 19754 19755 1 119.8800511 375.723200
19752 19754 19756 1 120.0200517 532.790560
19755 19754 19756 1 119.8800511 375.723200
19747 19756 19754 1 120.0200517 532.790560
19747 19756 19757 1 119.8800511 375.723200
19754 19756 19757 1 119.8800511 375.723200
19758 19759 19760 1 119.8800511 375.723200
19758 19759 19768 1 119.8800511 375.723200
19760 19759 19768 1 120.0200517 532.790560
19759 19760 19761 1 121.3800518 83.010560
19759 19760 19762 1 120.0200517 532.790560
19761 19760 19762 1 121.3800518 83.010560
2558 19761 2559 1 109.50000 418.400000
2558 19761 2560 1 109.50000 418.400000
2558 19761 19760 1 103.70004 836.800000
2559 19761 2560 1 109.50000 418.400000
2559 19761 19760 1 103.70004 836.800000
2560 19761 19760 1 103.70004 836.800000
19760 19762 19763 1 119.8800511 375.723200
19760 19762 19764 1 120.0200517 532.790560
19763 19762 19764 1 119.8800511 375.723200
19762 19764 19765 1 119.8800511 375.723200
19762 19764 19766 1 120.0200517 532.790560
19765 19764 19766 1 119.8800511 375.723200
19764 19766 19767 1 119.8800511 375.723200
19764 19766 19768 1 120.0200517 532.790560
19767 19766 19768 1 119.8800511 375.723200
19759 19768 19766 1 120.0200517 532.790560
19759 19768 19769 1 119.8800511 375.723200
19766 19768 19769 1 119.8800511 375.723200
19770 19771 19772 1 119.8800511 375.723200
19770 19771 19780 1 119.8800511 375.723200
19772 19771 19780 1 120.0200517 532.790560
19771 19772 19773 1 121.3800518 83.010560
19771 19772 19774 1 120.0200517 532.790560
19773 19772 19774 1 121.3800518 83.010560
1325 19773 2581 1 109.50000 418.400000
1325 19773 2582 1 109.50000 418.400000
1325 19773 19772 1 103.70004 836.800000
2581 19773 2582 1 109.50000 418.400000
2581 19773 19772 1 103.70004 836.800000
2582 19773 19772 1 103.70004 836.800000
19772 19774 19775 1 119.8800511 375.723200
19772 19774 19776 1 120.0200517 532.790560
19775 19774 19776 1 119.8800511 375.723200
19774 19776 19777 1 119.8800511 375.723200
19774 19776 19778 1 120.0200517 532.790560
19777 19776 19778 1 119.8800511 375.723200
19776 19778 19779 1 119.8800511 375.723200
19776 19778 19780 1 120.0200517 532.790560
19779 19778 19780 1 119.8800511 375.723200
19771 19780 19778 1 120.0200517 532.790560
19771 19780 19781 1 119.8800511 375.723200
19778 19780 19781 1 119.8800511 375.723200
19782 19783 19784 1 119.8800511 375.723200
19782 19783 19792 1 119.8800511 375.723200
19784 19783 19792 1 120.0200517 532.790560
19783 19784 19785 1 121.3800518 83.010560
19783 19784 19786 1 120.0200517 532.790560
19785 19784 19786 1 121.3800518 83.010560
2587 19785 2588 1 109.50000 418.400000
2587 19785 11166 1 109.50000 418.400000
2587 19785 19784 1 103.70004 836.800000
2588 19785 11166 1 109.50000 418.400000
2588 19785 19784 1 103.70004 836.800000
11166 19785 19784 1 103.70004 836.800000
19784 19786 19787 1 119.8800511 375.723200
19784 19786 19788 1 120.0200517 532.790560
19787 19786 19788 1 119.8800511 375.723200
19786 19788 19789 1 119.8800511 375.723200
19786 19788 19790 1 120.0200517 532.790560
19789 19788 19790 1 119.8800511 375.723200
19788 19790 19791 1 119.8800511 375.723200
19788 19790 19792 1 120.0200517 532.790560
19791 19790 19792 1 119.8800511 375.723200
19783 19792 19790 1 120.0200517 532.790560
19783 19792 19793 1 119.8800511 375.723200
19790 19792 19793 1 119.8800511 375.723200
19794 19795 19796 1 119.8800511 375.723200
19794 19795 19804 1 119.8800511 375.723200
19796 19795 19804 1 120.0200517 532.790560
19795 19796 19797 1 121.3800518 83.010560
19795 19796 19798 1 120.0200517 532.790560
19797 19796 19798 1 121.3800518 83.010560
2623 19797 2624 1 109.50000 418.400000
2623 19797 11152 1 109.50000 418.400000
2623 19797 19796 1 103.70004 836.800000
2624 19797 11152 1 109.50000 418.400000
2624 19797 19796 1 103.70004 836.800000
11152 19797 19796 1 103.70004 836.800000
19796 19798 19799 1 119.8800511 375.723200
19796 19798 19800 1 120.0200517 532.790560
19799 19798 19800 1 119.8800511 375.723200
19798 19800 19801 1 119.8800511 375.723200
19798 19800 19802 1 120.0200517 532.790560
19801 19800 19802 1 119.8800511 375.723200
19800 19802 19803 1 119.8800511 375.723200
19800 19802 19804 1 120.0200517 532.790560
19803 19802 19804 1 119.8800511 375.723200
19795 19804 19802 1 120.0200517 532.790560
19795 19804 19805 1 119.8800511 375.723200
19802 19804 19805 1 119.8800511 375.723200
19806 19807 19808 1 119.8800511 375.723200
19806 19807 19816 1 119.8800511 375.723200
19808 19807 19816 1 120.0200517 532.790560
19807 19808 19809 1 121.3800518 83.010560
19807 19808 19810 1 120.0200517 532.790560
19809 19808 19810 1 121.3800518 83.010560
2651 19809 2652 1 109.50000 418.400000
2651 19809 2653 1 109.50000 418.400000
2651 19809 19808 1 103.70004 836.800000
2652 19809 2653 1 109.50000 418.400000
2652 19809 19808 1 103.70004 836.800000
2653 19809 19808 1 103.70004 836.800000
19808 19810 19811 1 119.8800511 375.723200
19808 19810 19812 1 120.0200517 532.790560
19811 19810 19812 1 119.8800511 375.723200
19810 19812 19813 1 119.8800511 375.723200
19810 19812 19814 1 120.0200517 532.790560
19813 19812 19814 1 119.8800511 375.723200
19812 19814 19815 1 119.8800511 375.723200
19812 19814 19816 1 120.0200517 532.790560
19815 19814 19816 1 119.8800511 375.723200
19807 19816 19814 1 120.0200517 532.790560
19807 19816 19817 1 119.8800511 375.723200
19814 19816 19817 1 119.8800511 375.723200
19818 19819 19820 1 119.8800511 375.723200
19818 19819 19828 1 119.8800511 375.723200
19820 19819 19828 1 120.0200517 532.790560
19819 19820 19821 1 121.3800518 83.010560
19819 19820 19822 1 120.0200517 532.790560
19821 19820 19822 1 121.3800518 83.010560
2696 19821 2697 1 109.50000 418.400000
2696 19821 2698 1 109.50000 418.400000
2696 19821 19820 1 103.70004 836.800000
2697 19821 2698 1 109.50000 418.400000
2697 19821 19820 1 103.70004 836.800000
2698 19821 19820 1 103.70004 836.800000
19820 19822 19823 1 119.8800511 375.723200
19820 19822 19824 1 120.0200517 532.790560
19823 19822 19824 1 119.8800511 375.723200
19822 19824 19825 1 119.8800511 375.723200
19822 19824 19826 1 120.0200517 532.790560
19825 19824 19826 1 119.8800511 375.723200
19824 19826 19827 1 119.8800511 375.723200
19824 19826 19828 1 120.0200517 532.790560
19827 19826 19828 1 119.8800511 375.723200
19819 19828 19826 1 120.0200517 532.790560
19819 19828 19829 1 119.8800511 375.723200
19826 19828 19829 1 119.8800511 375.723200
19830 19831 19832 1 119.8800511 375.723200
19830 19831 19840 1 119.8800511 375.723200
19832 19831 19840 1 120.0200517 532.790560
19831 19832 19833 1 121.3800518 83.010560
19831 19832 19834 1 120.0200517 532.790560
19833 19832 19834 1 121.3800518 83.010560
2729 19833 2730 1 109.50000 418.400000
2729 19833 2731 1 109.50000 418.400000
2729 19833 19832 1 103.70004 836.800000
2730 19833 2731 1 109.50000 418.400000
2730 19833 19832 1 103.70004 836.800000
2731 19833 19832 1 103.70004 836.800000
19832 19834 19835 1 119.8800511 375.723200
19832 19834 19836 1 120.0200517 532.790560
19835 19834 19836 1 119.8800511 375.723200
19834 19836 19837 1 119.8800511 375.723200
19834 19836 19838 1 120.0200517 532.790560
19837 19836 19838 1 119.8800511 375.723200
19836 19838 19839 1 119.8800511 375.723200
19836 19838 19840 1 120.0200517 532.790560
19839 19838 19840 1 119.8800511 375.723200
19831 19840 19838 1 120.0200517 532.790560
19831 19840 19841 1 119.8800511 375.723200
19838 19840 19841 1 119.8800511 375.723200
19842 19843 19844 1 119.8800511 375.723200
19842 19843 19852 1 119.8800511 375.723200
19844 19843 19852 1 120.0200517 532.790560
19843 19844 19845 1 121.3800518 83.010560
19843 19844 19846 1 120.0200517 532.790560
19845 19844 19846 1 121.3800518 83.010560
2775 19845 2776 1 109.50000 418.400000
2775 19845 11167 1 109.50000 418.400000
2775 19845 19844 1 103.70004 836.800000
2776 19845 11167 1 109.50000 418.400000
2776 19845 19844 1 103.70004 836.800000
11167 19845 19844 1 103.70004 836.800000
19844 19846 19847 1 119.8800511 375.723200
19844 19846 19848 1 120.0200517 532.790560
19847 19846 19848 1 119.8800511 375.723200
19846 19848 19849 1 119.8800511 375.723200
19846 19848 19850 1 120.0200517 532.790560
19849 19848 19850 1 119.8800511 375.723200
19848 19850 19851 1 119.8800511 375.723200
19848 19850 19852 1 120.0200517 532.790560
19851 19850 19852 1 119.8800511 375.723200
19843 19852 19850 1 120.0200517 532.790560
19843 19852 19853 1 119.8800511 375.723200
19850 19852 19853 1 119.8800511 375.723200
19854 19855 19856 1 119.8800511 375.723200
19854 19855 19864 1 119.8800511 375.723200
19856 19855 19864 1 120.0200517 532.790560
19855 19856 19857 1 121.3800518 83.010560
19855 19856 19858 1 120.0200517 532.790560
19857 19856 19858 1 121.3800518 83.010560
1216 19857 2857 1 109.50000 418.400000
1216 19857 11142 1 109.50000 418.400000
1216 19857 19856 1 103.70004 836.800000
2857 19857 11142 1 109.50000 418.400000
2857 19857 19856 1 103.70004 836.800000
11142 19857 19856 1 103.70004 836.800000
19856 19858 19859 1 119.8800511 375.723200
19856 19858 19860 1 120.0200517 532.790560
19859 19858 19860 1 119.8800511 375.723200
19858 19860 19861 1 119.8800511 375.723200
19858 19860 19862 1 120.0200517 532.790560
19861 19860 19862 1 119.8800511 375.723200
19860 19862 19863 1 119.8800511 375.723200
19860 19862 19864 1 120.0200517 532.790560
19863 19862 19864 1 119.8800511 375.723200
19855 19864 19862 1 120.0200517 532.790560
19855 19864 19865 1 119.8800511 375.723200
19862 19864 19865 1 119.8800511 375.723200
19866 19867 19868 1 119.8800511 375.723200
19866 19867 19876 1 119.8800511 375.723200
19868 19867 19876 1 120.0200517 532.790560
19867 19868 19869 1 121.3800518 83.010560
19867 19868 19870 1 120.0200517 532.790560
19869 19868 19870 1 121.3800518 83.010560
2559 19869 2884 1 109.50000 418.400000
2559 19869 2885 1 109.50000 418.400000
2559 19869 19868 1 103.70004 836.800000
2884 19869 2885 1 109.50000 418.400000
2884 19869 19868 1 103.70004 836.800000
2885 19869 19868 1 103.70004 836.800000
19868 19870 19871 1 119.8800511 375.723200
19868 19870 19872 1 120.0200517 532.790560
19871 19870 19872 1 119.8800511 375.723200
19870 19872 19873 1 119.8800511 375.723200
19870 19872 19874 1 120.0200517 532.790560
19873 19872 19874 1 119.8800511 375.723200
19872 19874 19875 1 119.8800511 375.723200
19872 19874 19876 1 120.0200517 532.790560
19875 19874 19876 1 119.8800511 375.723200
19867 19876 19874 1 120.0200517 532.790560
19867 19876 19877 1 119.8800511 375.723200
19874 19876 19877 1 119.8800511 375.723200
19878 19879 19880 1 119.8800511 375.723200
19878 19879 19888 1 119.8800511 375.723200
19880 19879 19888 1 120.0200517 532.790560
19879 19880 19881 1 121.3800518 83.010560
19879 19880 19882 1 120.0200517 532.790560
19881 19880 19882 1 121.3800518 83.010560
2506 19881 2921 1 109.50000 418.400000
2506 19881 2922 1 109.50000 418.400000
2506 19881 19880 1 103.70004 836.800000
2921 19881 2922 1 109.50000 418.400000
2921 19881 19880 1 103.70004 836.800000
2922 19881 19880 1 103.70004 836.800000
19880 19882 19883 1 119.8800511 375.723200
19880 19882 19884 1 120.0200517 532.790560
19883 19882 19884 1 119.8800511 375.723200
19882 19884 19885 1 119.8800511 375.723200
19882 19884 19886 1 120.0200517 532.790560
19885 19884 19886 1 119.8800511 375.723200
19884 19886 19887 1 119.8800511 375.723200
19884 19886 19888 1 120.0200517 532.790560
19887 19886 19888 1 119.8800511 375.723200
19879 19888 19886 1 120.0200517 532.790560
19879 19888 19889 1 119.8800511 375.723200
19886 19888 19889 1 119.8800511 375.723200
19890 19891 19892 1 119.8800511 375.723200
19890 19891 19900 1 119.8800511 375.723200
19892 19891 19900 1 120.0200517 532.790560
19891 19892 19893 1 121.3800518 83.010560
19891 19892 19894 1 120.0200517 532.790560
19893 19892 19894 1 121.3800518 83.010560
2944 19893 2945 1 109.50000 418.400000
2944 19893 2946 1 109.50000 418.400000
2944 19893 19892 1 103.70004 836.800000
2945 19893 2946 1 109.50000 418.400000
2945 19893 19892 1 103.70004 836.800000
2946 19893 19892 1 103.70004 836.800000
19892 19894 19895 1 119.8800511 375.723200
19892 19894 19896 1 120.0200517 532.790560
19895 19894 19896 1 119.8800511 375.723200
19894 19896 19897 1 119.8800511 375.723200
19894 19896 19898 1 120.0200517 532.790560
19897 19896 19898 1 119.8800511 375.723200
19896 19898 19899 1 119.8800511 375.723200
19896 19898 19900 1 120.0200517 532.790560
19899 19898 19900 1 119.8800511 375.723200
19891 19900 19898 1 120.0200517 532.790560
19891 19900 19901 1 119.8800511 375.723200
19898 19900 19901 1 119.8800511 375.723200
19902 19903 19904 1 119.8800511 375.723200
19902 19903 19912 1 119.8800511 375.723200
19904 19903 19912 1 120.0200517 532.790560
19903 19904 19905 1 121.3800518 83.010560
19903 19904 19906 1 120.0200517 532.790560
19905 19904 19906 1 121.3800518 83.010560
2986 19905 2987 1 109.50000 418.400000
2986 19905 2988 1 109.50000 418.400000
2986 19905 19904 1 103.70004 836.800000
2987 19905 2988 1 109.50000 418.400000
2987 19905 19904 1 103.70004 836.800000
2988 19905 19904 1 103.70004 836.800000
19904 19906 19907 1 119.8800511 375.723200
19904 19906 19908 1 120.0200517 532.790560
19907 19906 19908 1 119.8800511 375.723200
19906 19908 19909 1 119.8800511 375.723200
19906 19908 19910 1 120.0200517 532.790560
19909 19908 19910 1 119.8800511 375.723200
19908 19910 19911 1 119.8800511 375.723200
19908 19910 19912 1 120.0200517 532.790560
19911 19910 19912 1 119.8800511 375.723200
19903 19912 19910 1 120.0200517 532.790560
19903 19912 19913 1 119.8800511 375.723200
19910 19912 19913 1 119.8800511 375.723200
19914 19915 19916 1 119.8800511 375.723200
19914 19915 19924 1 119.8800511 375.723200
19916 19915 19924 1 120.0200517 532.790560
19915 19916 19917 1 121.3800518 83.010560
19915 19916 19918 1 120.0200517 532.790560
19917 19916 19918 1 121.3800518 83.010560
2604 19917 2605 1 109.50000 418.400000
2604 19917 2991 1 109.50000 418.400000
2604 19917 19916 1 103.70004 836.800000
2605 19917 2991 1 109.50000 418.400000
2605 19917 19916 1 103.70004 836.800000
2991 19917 19916 1 103.70004 836.800000
19916 19918 19919 1 119.8800511 375.723200
19916 19918 19920 1 120.0200517 532.790560
19919 19918 19920 1 119.8800511 375.723200
19918 19920 19921 1 119.8800511 375.723200
19918 19920 19922 1 120.0200517 532.790560
19921 19920 19922 1 119.8800511 375.723200
19920 19922 19923 1 119.8800511 375.723200
19920 19922 19924 1 120.0200517 532.790560
19923 19922 19924 1 119.8800511 375.723200
19915 19924 19922 1 120.0200517 532.790560
19915 19924 19925 1 119.8800511 375.723200
19922 19924 19925 1 119.8800511 375.723200
19926 19927 19928 1 119.8800511 375.723200
19926 19927 19936 1 119.8800511 375.723200
19928 19927 19936 1 120.0200517 532.790560
19927 19928 19929 1 121.3800518 83.010560
19927 19928 19930 1 120.0200517 532.790560
19929 19928 19930 1 121.3800518 83.010560
2139 19929 2995 1 109.50000 418.400000
2139 19929 10649 1 109.50000 418.400000
2139 19929 19928 1 103.70004 836.800000
2995 19929 10649 1 109.50000 418.400000
2995 19929 19928 1 103.70004 836.800000
10649 19929 19928 1 103.70004 836.800000
19928 19930 19931 1 119.8800511 375.723200
19928 19930 19932 1 120.0200517 532.790560
19931 19930 19932 1 119.8800511 375.723200
19930 19932 19933 1 119.8800511 375.723200
19930 19932 19934 1 120.0200517 532.790560
19933 19932 19934 1 119.8800511 375.723200
19932 19934 19935 1 119.8800511 375.723200
19932 19934 19936 1 120.0200517 532.790560
19935 19934 19936 1 119.8800511 375.723200
19927 19936 19934 1 120.0200517 532.790560
19927 19936 19937 1 119.8800511 375.723200
19934 19936 19937 1 119.8800511 375.723200
19938 19939 19940 1 119.8800511 375.723200
19938 19939 19948 1 119.8800511 375.723200
19940 19939 19948 1 120.0200517 532.790560
19939 19940 19941 1 121.3800518 83.010560
19939 19940 19942 1 120.0200517 532.790560
19941 19940 19942 1 121.3800518 83.010560
3490 19941 10069 1 109.50000 418.400000
3490 19941 11180 1 109.50000 418.400000
3490 19941 19940 1 103.70004 836.800000
10069 19941 11180 1 109.50000 418.400000
10069 19941 19940 1 103.70004 836.800000
11180 19941 19940 1 103.70004 836.800000
19940 19942 19943 1 119.8800511 375.723200
19940 19942 19944 1 120.0200517 532.790560
19943 19942 19944 1 119.8800511 375.723200
19942 19944 19945 1 119.8800511 375.723200
19942 19944 19946 1 120.0200517 532.790560
19945 19944 19946 1 119.8800511 375.723200
19944 19946 19947 1 119.8800511 375.723200
19944 19946 19948 1 120.0200517 532.790560
19947 19946 19948 1 119.8800511 375.723200
19939 19948 19946 1 120.0200517 532.790560
19939 19948 19949 1 119.8800511 375.723200
19946 19948 19949 1 119.8800511 375.723200
19950 19951 19952 1 119.8800511 375.723200
19950 19951 19960 1 119.8800511 375.723200
19952 19951 19960 1 120.0200517 532.790560
19951 19952 19953 1 121.3800518 83.010560
19951 19952 19954 1 120.0200517 532.790560
19953 19952 19954 1 121.3800518 83.010560
579 19953 3434 1 109.50000 418.400000
579 19953 5660 1 109.50000 418.400000
579 19953 19952 1 103.70004 836.800000
3434 19953 5660 1 109.50000 418.400000
3434 19953 19952 1 103.70004 836.800000
5660 19953 19952 1 103.70004 836.800000
19952 19954 19955 1 119.8800511 375.723200
19952 19954 19956 1 120.0200517 532.790560
19955 19954 19956 1 119.8800511 375.723200
19954 19956 19957 1 119.8800511 375.723200
19954 19956 19958 1 120.0200517 532.790560
19957 19956 19958 1 119.8800511 375.723200
19956 19958 19959 1 119.8800511 375.723200
19956 19958 19960 1 120.0200517 532.790560
19959 19958 19960 1 119.8800511 375.723200
19951 19960 19958 1 120.0200517 532.790560
19951 19960 19961 1 119.8800511 375.723200
19958 19960 19961 1 119.8800511 375.723200
19962 19963 19964 1 119.8800511 375.723200
19962 19963 19972 1 119.8800511 375.723200
19964 19963 19972 1 120.0200517 532.790560
19963 19964 19965 1 121.3800518 83.010560
19963 19964 19966 1 120.0200517 532.790560
19965 19964 19966 1 121.3800518 83.010560
3033 19965 3034 1 109.50000 418.400000
3033 19965 3035 1 109.50000 418.400000
3033 19965 19964 1 103.70004 836.800000
3034 19965 3035 1 109.50000 418.400000
3034 19965 19964 1 103.70004 836.800000
3035 19965 19964 1 103.70004 836.800000
19964 19966 19967 1 119.8800511 375.723200
19964 19966 19968 1 120.0200517 532.790560
19967 19966 19968 1 119.8800511 375.723200
19966 19968 19969 1 119.8800511 375.723200
19966 19968 19970 1 120.0200517 532.790560
19969 19968 19970 1 119.8800511 375.723200
19968 19970 19971 1 119.8800511 375.723200
19968 19970 19972 1 120.0200517 532.790560
19971 19970 19972 1 119.8800511 375.723200
19963 19972 19970 1 120.0200517 532.790560
19963 19972 19973 1 119.8800511 375.723200
19970 19972 19973 1 119.8800511 375.723200
19974 19975 19976 1 119.8800511 375.723200
19974 19975 19984 1 119.8800511 375.723200
19976 19975 19984 1 120.0200517 532.790560
19975 19976 19977 1 121.3800518 83.010560
19975 19976 19978 1 120.0200517 532.790560
19977 19976 19978 1 121.3800518 83.010560
2027 19977 3042 1 109.50000 418.400000
2027 19977 11181 1 109.50000 418.400000
2027 19977 19976 1 103.70004 836.800000
3042 19977 11181 1 109.50000 418.400000
3042 19977 19976 1 103.70004 836.800000
11181 19977 19976 1 103.70004 836.800000
19976 19978 19979 1 119.8800511 375.723200
19976 19978 19980 1 120.0200517 532.790560
19979 19978 19980 1 119.8800511 375.723200
19978 19980 19981 1 119.8800511 375.723200
19978 19980 19982 1 120.0200517 532.790560
19981 19980 19982 1 119.8800511 375.723200
19980 19982 19983 1 119.8800511 375.723200
19980 19982 19984 1 120.0200517 532.790560
19983 19982 19984 1 119.8800511 375.723200
19975 19984 19982 1 120.0200517 532.790560
19975 19984 19985 1 119.8800511 375.723200
19982 19984 19985 1 119.8800511 375.723200
19986 19987 19988 1 119.8800511 375.723200
19986 19987 19996 1 119.8800511 375.723200
19988 19987 19996 1 120.0200517 532.790560
19987 19988 19989 1 121.3800518 83.010560
19987 19988 19990 1 120.0200517 532.790560
19989 19988 19990 1 121.3800518 83.010560
3047 19989 3048 1 109.50000 418.400000
3047 19989 11148 1 109.50000 418.400000
3047 19989 19988 1 103.70004 836.800000
3048 19989 11148 1 109.50000 418.400000
3048 19989 19988 1 103.70004 836.800000
11148 19989 19988 1 103.70004 836.800000
19988 19990 19991 1 119.8800511 375.723200
19988 19990 19992 1 120.0200517 532.790560
19991 19990 19992 1 119.8800511 375.723200
19990 19992 19993 1 119.8800511 375.723200
19990 19992 19994 1 120.0200517 532.790560
19993 19992 19994 1 119.8800511 375.723200
19992 19994 19995 1 119.8800511 375.723200
19992 19994 19996 1 120.0200517 532.790560
19995 19994 19996 1 119.8800511 375.723200
19987 19996 19994 1 120.0200517 532.790560
19987 19996 19997 1 119.8800511 375.723200
19994 19996 19997 1 119.8800511 375.723200
19998 19999 20000 1 119.8800511 375.723200
19998 19999 20008 1 119.8800511 375.723200
20000 19999 20008 1 120.0200517 532.790560
19999 20000 20001 1 121.3800518 83.010560
19999 20000 20002 1 120.0200517 532.790560
20001 20000 20002 1 121.3800518 83.010560
3104 20001 3105 1 109.50000 418.400000
3104 20001 3106 1 109.50000 418.400000
3104 20001 20000 1 103.70004 836.800000
3105 20001 3106 1 109.50000 418.400000
3105 20001 20000 1 103.70004 836.800000
3106 20001 20000 1 103.70004 836.800000
20000 20002 20003 1 119.8800511 375.723200
20000 20002 20004 1 120.0200517 532.790560
20003 20002 20004 1 119.8800511 375.723200
20002 20004 20005 1 119.8800511 375.723200
20002 20004 20006 1 120.0200517 532.790560
20005 20004 20006 1 119.8800511 375.723200
20004 20006 20007 1 119.8800511 375.723200
20004 20006 20008 1 120.0200517 532.790560
20007 20006 20008 1 119.8800511 375.723200
19999 20008 20006 1 120.0200517 532.790560
19999 20008 20009 1 119.8800511 375.723200
20006 20008 20009 1 119.8800511 375.723200
20010 20011 20012 1 119.8800511 375.723200
20010 20011 20020 1 119.8800511 375.723200
20012 20011 20020 1 120.0200517 532.790560
20011 20012 20013 1 121.3800518 83.010560
20011 20012 20014 1 120.0200517 532.790560
20013 20012 20014 1 121.3800518 83.010560
440 20013 3109 1 109.50000 418.400000
440 20013 10195 1 109.50000 418.400000
440 20013 20012 1 103.70004 836.800000
3109 20013 10195 1 109.50000 418.400000
3109 20013 20012 1 103.70004 836.800000
10195 20013 20012 1 103.70004 836.800000
20012 20014 20015 1 119.8800511 375.723200
20012 20014 20016 1 120.0200517 532.790560
20015 20014 20016 1 119.8800511 375.723200
20014 20016 20017 1 119.8800511 375.723200
20014 20016 20018 1 120.0200517 532.790560
20017 20016 20018 1 119.8800511 375.723200
20016 20018 20019 1 119.8800511 375.723200
20016 20018 20020 1 120.0200517 532.790560
20019 20018 20020 1 119.8800511 375.723200
20011 20020 20018 1 120.0200517 532.790560
20011 20020 20021 1 119.8800511 375.723200
20018 20020 20021 1 119.8800511 375.723200
20022 20023 20024 1 119.8800511 375.723200
20022 20023 20032 1 119.8800511 375.723200
20024 20023 20032 1 120.0200517 532.790560
20023 20024 20025 1 121.3800518 83.010560
20023 20024 20026 1 120.0200517 532.790560
20025 20024 20026 1 121.3800518 83.010560
3119 20025 3120 1 109.50000 418.400000
3119 20025 3121 1 109.50000 418.400000
3119 20025 20024 1 103.70004 836.800000
3120 20025 3121 1 109.50000 418.400000
3120 20025 20024 1 103.70004 836.800000
3121 20025 20024 1 103.70004 836.800000
20024 20026 20027 1 119.8800511 375.723200
20024 20026 20028 1 120.0200517 532.790560
20027 20026 20028 1 119.8800511 375.723200
20026 20028 20029 1 119.8800511 375.723200
20026 20028 20030 1 120.0200517 532.790560
20029 20028 20030 1 119.8800511 375.723200
20028 20030 20031 1 119.8800511 375.723200
20028 20030 20032 1 120.0200517 532.790560
20031 20030 20032 1 119.8800511 375.723200
20023 20032 20030 1 120.0200517 532.790560
20023 20032 20033 1 119.8800511 375.723200
20030 20032 20033 1 119.8800511 375.723200
20034 20035 20036 1 119.8800511 375.723200
20034 20035 20044 1 119.8800511 375.723200
20036 20035 20044 1 120.0200517 532.790560
20035 20036 20037 1 121.3800518 83.010560
20035 20036 20038 1 120.0200517 532.790560
20037 20036 20038 1 121.3800518 83.010560
3147 20037 6233 1 109.50000 418.400000
3147 20037 11182 1 109.50000 418.400000
3147 20037 20036 1 103.70004 836.800000
6233 20037 11182 1 109.50000 418.400000
6233 20037 20036 1 103.70004 836.800000
11182 20037 20036 1 103.70004 836.800000
20036 20038 20039 1 119.8800511 375.723200
20036 20038 20040 1 120.0200517 532.790560
20039 20038 20040 1 119.8800511 375.723200
20038 20040 20041 1 119.8800511 375.723200
20038 20040 20042 1 120.0200517 532.790560
20041 20040 20042 1 119.8800511 375.723200
20040 20042 20043 1 119.8800511 375.723200
20040 20042 20044 1 120.0200517 532.790560
20043 20042 20044 1 119.8800511 375.723200
20035 20044 20042 1 120.0200517 532.790560
20035 20044 20045 1 119.8800511 375.723200
20042 20044 20045 1 119.8800511 375.723200
20046 20047 20048 1 119.8800511 375.723200
20046 20047 20056 1 119.8800511 375.723200
20048 20047 20056 1 120.0200517 532.790560
20047 20048 20049 1 121.3800518 83.010560
20047 20048 20050 1 120.0200517 532.790560
20049 20048 20050 1 121.3800518 83.010560
3148 20049 3149 1 109.50000 418.400000
3148 20049 11183 1 109.50000 418.400000
3148 20049 20048 1 103.70004 836.800000
3149 20049 11183 1 109.50000 418.400000
3149 20049 20048 1 103.70004 836.800000
11183 20049 20048 1 103.70004 836.800000
20048 20050 20051 1 119.8800511 375.723200
20048 20050 20052 1 120.0200517 532.790560
20051 20050 20052 1 119.8800511 375.723200
20050 20052 20053 1 119.8800511 375.723200
20050 20052 20054 1 120.0200517 532.790560
20053 20052 20054 1 119.8800511 375.723200
20052 20054 20055 1 119.8800511 375.723200
20052 20054 20056 1 120.0200517 532.790560
20055 20054 20056 1 119.8800511 375.723200
20047 20056 20054 1 120.0200517 532.790560
20047 20056 20057 1 119.8800511 375.723200
20054 20056 20057 1 119.8800511 375.723200
20058 20059 20060 1 119.8800511 375.723200
20058 20059 20068 1 119.8800511 375.723200
20060 20059 20068 1 120.0200517 532.790560
20059 20060 20061 1 121.3800518 83.010560
20059 20060 20062 1 120.0200517 532.790560
20061 20060 20062 1 121.3800518 83.010560
3109 20061 3161 1 109.50000 418.400000
3109 20061 11157 1 109.50000 418.400000
3109 20061 20060 1 103.70004 836.800000
3161 20061 11157 1 109.50000 418.400000
3161 20061 20060 1 103.70004 836.800000
11157 20061 20060 1 103.70004 836.800000
20060 20062 20063 1 119.8800511 375.723200
20060 20062 20064 1 120.0200517 532.790560
20063 20062 20064 1 119.8800511 375.723200
20062 20064 20065 1 119.8800511 375.723200
20062 20064 20066 1 120.0200517 532.790560
20065 20064 20066 1 119.8800511 375.723200
20064 20066 20067 1 119.8800511 375.723200
20064 20066 20068 1 120.0200517 532.790560
20067 20066 20068 1 119.8800511 375.723200
20059 20068 20066 1 120.0200517 532.790560
20059 20068 20069 1 119.8800511 375.723200
20066 20068 20069 1 119.8800511 375.723200
20070 20071 20072 1 119.8800511 375.723200
20070 20071 20080 1 119.8800511 375.723200
20072 20071 20080 1 120.0200517 532.790560
20071 20072 20073 1 121.3800518 83.010560
20071 20072 20074 1 120.0200517 532.790560
20073 20072 20074 1 121.3800518 83.010560
3188 20073 3189 1 109.50000 418.400000
3188 20073 3248 1 109.50000 418.400000
3188 20073 20072 1 103.70004 836.800000
3189 20073 3248 1 109.50000 418.400000
3189 20073 20072 1 103.70004 836.800000
3248 20073 20072 1 103.70004 836.800000
20072 20074 20075 1 119.8800511 375.723200
20072 20074 20076 1 120.0200517 532.790560
20075 20074 20076 1 119.8800511 375.723200
20074 20076 20077 1 119.8800511 375.723200
20074 20076 20078 1 120.0200517 532.790560
20077 20076 20078 1 119.8800511 375.723200
20076 20078 20079 1 119.8800511 375.723200
20076 20078 20080 1 120.0200517 532.790560
20079 20078 20080 1 119.8800511 375.723200
20071 20080 20078 1 120.0200517 532.790560
20071 20080 20081 1 119.8800511 375.723200
20078 20080 20081 1 119.8800511 375.723200
20082 20083 20084 1 119.8800511 375.723200
20082 20083 20092 1 119.8800511 375.723200
20084 20083 20092 1 120.0200517 532.790560
20083 20084 20085 1 121.3800518 83.010560
20083 20084 20086 1 120.0200517 532.790560
20085 20084 20086 1 121.3800518 83.010560
3223 20085 3224 1 109.50000 418.400000
3223 20085 11184 1 109.50000 418.400000
3223 20085 20084 1 103.70004 836.800000
3224 20085 11184 1 109.50000 418.400000
3224 20085 20084 1 103.70004 836.800000
11184 20085 20084 1 103.70004 836.800000
20084 20086 20087 1 119.8800511 375.723200
20084 20086 20088 1 120.0200517 532.790560
20087 20086 20088 1 119.8800511 375.723200
20086 20088 20089 1 119.8800511 375.723200
20086 20088 20090 1 120.0200517 532.790560
20089 20088 20090 1 119.8800511 375.723200
20088 20090 20091 1 119.8800511 375.723200
20088 20090 20092 1 120.0200517 532.790560
20091 20090 20092 1 119.8800511 375.723200
20083 20092 20090 1 120.0200517 532.790560
20083 20092 20093 1 119.8800511 375.723200
20090 20092 20093 1 119.8800511 375.723200
20094 20095 20096 1 119.8800511 375.723200
20094 20095 20104 1 119.8800511 375.723200
20096 20095 20104 1 120.0200517 532.790560
20095 20096 20097 1 121.3800518 83.010560
20095 20096 20098 1 120.0200517 532.790560
20097 20096 20098 1 121.3800518 83.010560
3284 20097 3285 1 109.50000 418.400000
3284 20097 11185 1 109.50000 418.400000
3284 20097 20096 1 103.70004 836.800000
3285 20097 11185 1 109.50000 418.400000
3285 20097 20096 1 103.70004 836.800000
11185 20097 20096 1 103.70004 836.800000
20096 20098 20099 1 119.8800511 375.723200
20096 20098 20100 1 120.0200517 532.790560
20099 20098 20100 1 119.8800511 375.723200
20098 20100 20101 1 119.8800511 375.723200
20098 20100 20102 1 120.0200517 532.790560
20101 20100 20102 1 119.8800511 375.723200
20100 20102 20103 1 119.8800511 375.723200
20100 20102 20104 1 120.0200517 532.790560
20103 20102 20104 1 119.8800511 375.723200
20095 20104 20102 1 120.0200517 532.790560
20095 20104 20105 1 119.8800511 375.723200
20102 20104 20105 1 119.8800511 375.723200
20106 20107 20108 1 119.8800511 375.723200
20106 20107 20116 1 119.8800511 375.723200
20108 20107 20116 1 120.0200517 532.790560
20107 20108 20109 1 121.3800518 83.010560
20107 20108 20110 1 120.0200517 532.790560
20109 20108 20110 1 121.3800518 83.010560
3302 20109 3303 1 109.50000 418.400000
3302 20109 3304 1 109.50000 418.400000
3302 20109 20108 1 103.70004 836.800000
3303 20109 3304 1 109.50000 418.400000
3303 20109 20108 1 103.70004 836.800000
3304 20109 20108 1 103.70004 836.800000
20108 20110 20111 1 119.8800511 375.723200
20108 20110 20112 1 120.0200517 532.790560
20111 20110 20112 1 119.8800511 375.723200
20110 20112 20113 1 119.8800511 375.723200
20110 20112 20114 1 120.0200517 532.790560
20113 20112 20114 1 119.8800511 375.723200
20112 20114 20115 1 119.8800511 375.723200
20112 20114 20116 1 120.0200517 532.790560
20115 20114 20116 1 119.8800511 375.723200
20107 20116 20114 1 120.0200517 532.790560
20107 20116 20117 1 119.8800511 375.723200
20114 20116 20117 1 119.8800511 375.723200
20118 20119 20120 1 119.8800511 375.723200
20118 20119 20128 1 119.8800511 375.723200
20120 20119 20128 1 120.0200517 532.790560
20119 20120 20121 1 121.3800518 83.010560
20119 20120 20122 1 120.0200517 532.790560
20121 20120 20122 1 121.3800518 83.010560
3333 20121 3334 1 109.50000 418.400000
3333 20121 3335 1 109.50000 418.400000
3333 20121 20120 1 103.70004 836.800000
3334 20121 3335 1 109.50000 418.400000
3334 20121 20120 1 103.70004 836.800000
3335 20121 20120 1 103.70004 836.800000
20120 20122 20123 1 119.8800511 375.723200
20120 20122 20124 1 120.0200517 532.790560
20123 20122 20124 1 119.8800511 375.723200
20122 20124 20125 1 119.8800511 375.723200
20122 20124 20126 1 120.0200517 532.790560
20125 20124 20126 1 119.8800511 375.723200
20124 20126 20127 1 119.8800511 375.723200
20124 20126 20128 1 120.0200517 532.790560
20127 20126 20128 1 119.8800511 375.723200
20119 20128 20126 1 120.0200517 532.790560
20119 20128 20129 1 119.8800511 375.723200
20126 20128 20129 1 119.8800511 375.723200
20130 20131 20132 1 119.8800511 375.723200
20130 20131 20140 1 119.8800511 375.723200
20132 20131 20140 1 120.0200517 532.790560
20131 20132 20133 1 121.3800518 83.010560
20131 20132 20134 1 120.0200517 532.790560
20133 20132 20134 1 121.3800518 83.010560
801 20133 3338 1 109.50000 418.400000
801 20133 3339 1 109.50000 418.400000
801 20133 20132 1 103.70004 836.800000
3338 20133 3339 1 109.50000 418.400000
3338 20133 20132 1 103.70004 836.800000
3339 20133 20132 1 103.70004 836.800000
20132 20134 20135 1 119.8800511 375.723200
20132 20134 20136 1 120.0200517 532.790560
20135 20134 20136 1 119.8800511 375.723200
20134 20136 20137 1 119.8800511 375.723200
20134 20136 20138 1 120.0200517 532.790560
20137 20136 20138 1 119.8800511 375.723200
20136 20138 20139 1 119.8800511 375.723200
20136 20138 20140 1 120.0200517 532.790560
20139 20138 20140 1 119.8800511 375.723200
20131 20140 20138 1 120.0200517 532.790560
20131 20140 20141 1 119.8800511 375.723200
20138 20140 20141 1 119.8800511 375.723200
20142 20143 20144 1 119.8800511 375.723200
20142 20143 20152 1 119.8800511 375.723200
20144 20143 20152 1 120.0200517 532.790560
20143 20144 20145 1 121.3800518 83.010560
20143 20144 20146 1 120.0200517 532.790560
20145 20144 20146 1 121.3800518 83.010560
3351 20145 3352 1 109.50000 418.400000
3351 20145 3353 1 109.50000 418.400000
3351 20145 20144 1 103.70004 836.800000
3352 20145 3353 1 109.50000 418.400000
3352 20145 20144 1 103.70004 836.800000
3353 20145 20144 1 103.70004 836.800000
20144 20146 20147 1 119.8800511 375.723200
20144 20146 20148 1 120.0200517 532.790560
20147 20146 20148 1 119.8800511 375.723200
20146 20148 20149 1 119.8800511 375.723200
20146 20148 20150 1 120.0200517 532.790560
20149 20148 20150 1 119.8800511 375.723200
20148 20150 20151 1 119.8800511 375.723200
20148 20150 20152 1 120.0200517 532.790560
20151 20150 20152 1 119.8800511 375.723200
20143 20152 20150 1 120.0200517 532.790560
20143 20152 20153 1 119.8800511 375.723200
20150 20152 20153 1 119.8800511 375.723200
20154 20155 20156 1 119.8800511 375.723200
20154 20155 20164 1 119.8800511 375.723200
20156 20155 20164 1 120.0200517 532.790560
20155 20156 20157 1 121.3800518 83.010560
20155 20156 20158 1 120.0200517 532.790560
20157 20156 20158 1 121.3800518 83.010560
125 20157 3371 1 109.50000 418.400000
125 20157 11186 1 109.50000 418.400000
125 20157 20156 1 103.70004 836.800000
3371 20157 11186 1 109.50000 418.400000
3371 20157 20156 1 103.70004 836.800000
11186 20157 20156 1 103.70004 836.800000
20156 20158 20159 1 119.8800511 375.723200
20156 20158 20160 1 120.0200517 532.790560
20159 20158 20160 1 119.8800511 375.723200
20158 20160 20161 1 119.8800511 375.723200
20158 20160 20162 1 120.0200517 532.790560
20161 20160 20162 1 119.8800511 375.723200
20160 20162 20163 1 119.8800511 375.723200
20160 20162 20164 1 120.0200517 532.790560
20163 20162 20164 1 119.8800511 375.723200
20155 20164 20162 1 120.0200517 532.790560
20155 20164 20165 1 119.8800511 375.723200
20162 20164 20165 1 119.8800511 375.723200
20166 20167 20168 1 119.8800511 375.723200
20166 20167 20176 1 119.8800511 375.723200
20168 20167 20176 1 120.0200517 532.790560
20167 20168 20169 1 121.3800518 83.010560
20167 20168 20170 1 120.0200517 532.790560
20169 20168 20170 1 121.3800518 83.010560
3376 20169 3377 1 109.50000 418.400000
3376 20169 3378 1 109.50000 418.400000
3376 20169 20168 1 103.70004 836.800000
3377 20169 3378 1 109.50000 418.400000
3377 20169 20168 1 103.70004 836.800000
3378 20169 20168 1 103.70004 836.800000
20168 20170 20171 1 119.8800511 375.723200
20168 20170 20172 1 120.0200517 532.790560
20171 20170 20172 1 119.8800511 375.723200
20170 20172 20173 1 119.8800511 375.723200
20170 20172 20174 1 120.0200517 532.790560
20173 20172 20174 1 119.8800511 375.723200
20172 20174 20175 1 119.8800511 375.723200
20172 20174 20176 1 120.0200517 532.790560
20175 20174 20176 1 119.8800511 375.723200
20167 20176 20174 1 120.0200517 532.790560
20167 20176 20177 1 119.8800511 375.723200
20174 20176 20177 1 119.8800511 375.723200
20178 20179 20180 1 119.8800511 375.723200
20178 20179 20188 1 119.8800511 375.723200
20180 20179 20188 1 120.0200517 532.790560
20179 20180 20181 1 121.3800518 83.010560
20179 20180 20182 1 120.0200517 532.790560
20181 20180 20182 1 121.3800518 83.010560
3379 20181 3380 1 109.50000 418.400000
3379 20181 11187 1 109.50000 418.400000
3379 20181 20180 1 103.70004 836.800000
3380 20181 11187 1 109.50000 418.400000
3380 20181 20180 1 103.70004 836.800000
11187 20181 20180 1 103.70004 836.800000
20180 20182 20183 1 119.8800511 375.723200
20180 20182 20184 1 120.0200517 532.790560
20183 20182 20184 1 119.8800511 375.723200
20182 20184 20185 1 119.8800511 375.723200
20182 20184 20186 1 120.0200517 532.790560
20185 20184 20186 1 119.8800511 375.723200
20184 20186 20187 1 119.8800511 375.723200
20184 20186 20188 1 120.0200517 532.790560
20187 20186 20188 1 119.8800511 375.723200
20179 20188 20186 1 120.0200517 532.790560
20179 20188 20189 1 119.8800511 375.723200
20186 20188 20189 1 119.8800511 375.723200
20190 20191 20192 1 119.8800511 375.723200
20190 20191 20200 1 119.8800511 375.723200
20192 20191 20200 1 120.0200517 532.790560
20191 20192 20193 1 121.3800518 83.010560
20191 20192 20194 1 120.0200517 532.790560
20193 20192 20194 1 121.3800518 83.010560
3385 20193 3386 1 109.50000 418.400000
3385 20193 3387 1 109.50000 418.400000
3385 20193 20192 1 103.70004 836.800000
3386 20193 3387 1 109.50000 418.400000
3386 20193 20192 1 103.70004 836.800000
3387 20193 20192 1 103.70004 836.800000
20192 20194 20195 1 119.8800511 375.723200
20192 20194 20196 1 120.0200517 532.790560
20195 20194 20196 1 119.8800511 375.723200
20194 20196 20197 1 119.8800511 375.723200
20194 20196 20198 1 120.0200517 532.790560
20197 20196 20198 1 119.8800511 375.723200
20196 20198 20199 1 119.8800511 375.723200
20196 20198 20200 1 120.0200517 532.790560
20199 20198 20200 1 119.8800511 375.723200
20191 20200 20198 1 120.0200517 532.790560
20191 20200 20201 1 119.8800511 375.723200
20198 20200 20201 1 119.8800511 375.723200
20202 20203 20204 1 119.8800511 375.723200
20202 20203 20212 1 119.8800511 375.723200
20204 20203 20212 1 120.0200517 532.790560
20203 20204 20205 1 121.3800518 83.010560
20203 20204 20206 1 120.0200517 532.790560
20205 20204 20206 1 121.3800518 83.010560
3417 20205 3418 1 109.50000 418.400000
3417 20205 3419 1 109.50000 418.400000
3417 20205 20204 1 103.70004 836.800000
3418 20205 3419 1 109.50000 418.400000
3418 20205 20204 1 103.70004 836.800000
3419 20205 20204 1 103.70004 836.800000
20204 20206 20207 1 119.8800511 375.723200
20204 20206 20208 1 120.0200517 532.790560
20207 20206 20208 1 119.8800511 375.723200
20206 20208 20209 1 119.8800511 375.723200
20206 20208 20210 1 120.0200517 532.790560
20209 20208 20210 1 119.8800511 375.723200
20208 20210 20211 1 119.8800511 375.723200
20208 20210 20212 1 120.0200517 532.790560
20211 20210 20212 1 119.8800511 375.723200
20203 20212 20210 1 120.0200517 532.790560
20203 20212 20213 1 119.8800511 375.723200
20210 20212 20213 1 119.8800511 375.723200
20214 20215 20216 1 119.8800511 375.723200
20214 20215 20224 1 119.8800511 375.723200
20216 20215 20224 1 120.0200517 532.790560
20215 20216 20217 1 121.3800518 83.010560
20215 20216 20218 1 120.0200517 532.790560
20217 20216 20218 1 121.3800518 83.010560
3430 20217 3431 1 109.50000 418.400000
3430 20217 11188 1 109.50000 418.400000
3430 20217 20216 1 103.70004 836.800000
3431 20217 11188 1 109.50000 418.400000
3431 20217 20216 1 103.70004 836.800000
11188 20217 20216 1 103.70004 836.800000
20216 20218 20219 1 119.8800511 375.723200
20216 20218 20220 1 120.0200517 532.790560
20219 20218 20220 1 119.8800511 375.723200
20218 20220 20221 1 119.8800511 375.723200
20218 20220 20222 1 120.0200517 532.790560
20221 20220 20222 1 119.8800511 375.723200
20220 20222 20223 1 119.8800511 375.723200
20220 20222 20224 1 120.0200517 532.790560
20223 20222 20224 1 119.8800511 375.723200
20215 20224 20222 1 120.0200517 532.790560
20215 20224 20225 1 119.8800511 375.723200
20222 20224 20225 1 119.8800511 375.723200
20226 20227 20228 1 119.8800511 375.723200
20226 20227 20236 1 119.8800511 375.723200
20228 20227 20236 1 120.0200517 532.790560
20227 20228 20229 1 121.3800518 83.010560
20227 20228 20230 1 120.0200517 532.790560
20229 20228 20230 1 121.3800518 83.010560
3477 20229 3478 1 109.50000 418.400000
3477 20229 3479 1 109.50000 418.400000
3477 20229 20228 1 103.70004 836.800000
3478 20229 3479 1 109.50000 418.400000
3478 20229 20228 1 103.70004 836.800000
3479 20229 20228 1 103.70004 836.800000
20228 20230 20231 1 119.8800511 375.723200
20228 20230 20232 1 120.0200517 532.790560
20231 20230 20232 1 119.8800511 375.723200
20230 20232 20233 1 119.8800511 375.723200
20230 20232 20234 1 120.0200517 532.790560
20233 20232 20234 1 119.8800511 375.723200
20232 20234 20235 1 119.8800511 375.723200
20232 20234 20236 1 120.0200517 532.790560
20235 20234 20236 1 119.8800511 375.723200
20227 20236 20234 1 120.0200517 532.790560
20227 20236 20237 1 119.8800511 375.723200
20234 20236 20237 1 119.8800511 375.723200
20238 20239 20240 1 119.8800511 375.723200
20238 20239 20248 1 119.8800511 375.723200
20240 20239 20248 1 120.0200517 532.790560
20239 20240 20241 1 121.3800518 83.010560
20239 20240 20242 1 120.0200517 532.790560
20241 20240 20242 1 121.3800518 83.010560
3486 20241 3487 1 109.50000 418.400000
3486 20241 3488 1 109.50000 418.400000
3486 20241 20240 1 103.70004 836.800000
3487 20241 3488 1 109.50000 418.400000
3487 20241 20240 1 103.70004 836.800000
3488 20241 20240 1 103.70004 836.800000
20240 20242 20243 1 119.8800511 375.723200
20240 20242 20244 1 120.0200517 532.790560
20243 20242 20244 1 119.8800511 375.723200
20242 20244 20245 1 119.8800511 375.723200
20242 20244 20246 1 120.0200517 532.790560
20245 20244 20246 1 119.8800511 375.723200
20244 20246 20247 1 119.8800511 375.723200
20244 20246 20248 1 120.0200517 532.790560
20247 20246 20248 1 119.8800511 375.723200
20239 20248 20246 1 120.0200517 532.790560
20239 20248 20249 1 119.8800511 375.723200
20246 20248 20249 1 119.8800511 375.723200
20250 20251 20252 1 119.8800511 375.723200
20250 20251 20260 1 119.8800511 375.723200
20252 20251 20260 1 120.0200517 532.790560
20251 20252 20253 1 121.3800518 83.010560
20251 20252 20254 1 120.0200517 532.790560
20253 20252 20254 1 121.3800518 83.010560
3525 20253 3526 1 109.50000 418.400000
3525 20253 3527 1 109.50000 418.400000
3525 20253 20252 1 103.70004 836.800000
3526 20253 3527 1 109.50000 418.400000
3526 20253 20252 1 103.70004 836.800000
3527 20253 20252 1 103.70004 836.800000
20252 20254 20255 1 119.8800511 375.723200
20252 20254 20256 1 120.0200517 532.790560
20255 20254 20256 1 119.8800511 375.723200
20254 20256 20257 1 119.8800511 375.723200
20254 20256 20258 1 120.0200517 532.790560
20257 20256 20258 1 119.8800511 375.723200
20256 20258 20259 1 119.8800511 375.723200
20256 20258 20260 1 120.0200517 532.790560
20259 20258 20260 1 119.8800511 375.723200
20251 20260 20258 1 120.0200517 532.790560
20251 20260 20261 1 119.8800511 375.723200
20258 20260 20261 1 119.8800511 375.723200
20262 20263 20264 1 119.8800511 375.723200
20262 20263 20272 1 119.8800511 375.723200
20264 20263 20272 1 120.0200517 532.790560
20263 20264 20265 1 121.3800518 83.010560
20263 20264 20266 1 120.0200517 532.790560
20265 20264 20266 1 121.3800518 83.010560
3559 20265 3560 1 109.50000 418.400000
3559 20265 3561 1 109.50000 418.400000
3559 20265 20264 1 103.70004 836.800000
3560 20265 3561 1 109.50000 418.400000
3560 20265 20264 1 103.70004 836.800000
3561 20265 20264 1 103.70004 836.800000
20264 20266 20267 1 119.8800511 375.723200
20264 20266 20268 1 120.0200517 532.790560
20267 20266 20268 1 119.8800511 375.723200
20266 20268 20269 1 119.8800511 375.723200
20266 20268 20270 1 120.0200517 532.790560
20269 20268 20270 1 119.8800511 375.723200
20268 20270 20271 1 119.8800511 375.723200
20268 20270 20272 1 120.0200517 532.790560
20271 20270 20272 1 119.8800511 375.723200
20263 20272 20270 1 120.0200517 532.790560
20263 20272 20273 1 119.8800511 375.723200
20270 20272 20273 1 119.8800511 375.723200
20274 20275 20276 1 119.8800511 375.723200
20274 20275 20284 1 119.8800511 375.723200
20276 20275 20284 1 120.0200517 532.790560
20275 20276 20277 1 121.3800518 83.010560
20275 20276 20278 1 120.0200517 532.790560
20277 20276 20278 1 121.3800518 83.010560
3566 20277 3567 1 109.50000 418.400000
3566 20277 3568 1 109.50000 418.400000
3566 20277 20276 1 103.70004 836.800000
3567 20277 3568 1 109.50000 418.400000
3567 20277 20276 1 103.70004 836.800000
3568 20277 20276 1 103.70004 836.800000
20276 20278 20279 1 119.8800511 375.723200
20276 20278 20280 1 120.0200517 532.790560
20279 20278 20280 1 119.8800511 375.723200
20278 20280 20281 1 119.8800511 375.723200
20278 20280 20282 1 120.0200517 532.790560
20281 20280 20282 1 119.8800511 375.723200
20280 20282 20283 1 119.8800511 375.723200
20280 20282 20284 1 120.0200517 532.790560
20283 20282 20284 1 119.8800511 375.723200
20275 20284 20282 1 120.0200517 532.790560
20275 20284 20285 1 119.8800511 375.723200
20282 20284 20285 1 119.8800511 375.723200
20286 20287 20288 1 119.8800511 375.723200
20286 20287 20296 1 119.8800511 375.723200
20288 20287 20296 1 120.0200517 532.790560
20287 20288 20289 1 121.3800518 83.010560
20287 20288 20290 1 120.0200517 532.790560
20289 20288 20290 1 121.3800518 83.010560
1123 20289 3601 1 109.50000 418.400000
1123 20289 11189 1 109.50000 418.400000
1123 20289 20288 1 103.70004 836.800000
3601 20289 11189 1 109.50000 418.400000
3601 20289 20288 1 103.70004 836.800000
11189 20289 20288 1 103.70004 836.800000
20288 20290 20291 1 119.8800511 375.723200
20288 20290 20292 1 120.0200517 532.790560
20291 20290 20292 1 119.8800511 375.723200
20290 20292 20293 1 119.8800511 375.723200
20290 20292 20294 1 120.0200517 532.790560
20293 20292 20294 1 119.8800511 375.723200
20292 20294 20295 1 119.8800511 375.723200
20292 20294 20296 1 120.0200517 532.790560
20295 20294 20296 1 119.8800511 375.723200
20287 20296 20294 1 120.0200517 532.790560
20287 20296 20297 1 119.8800511 375.723200
20294 20296 20297 1 119.8800511 375.723200
20298 20299 20300 1 119.8800511 375.723200
20298 20299 20308 1 119.8800511 375.723200
20300 20299 20308 1 120.0200517 532.790560
20299 20300 20301 1 121.3800518 83.010560
20299 20300 20302 1 120.0200517 532.790560
20301 20300 20302 1 121.3800518 83.010560
1939 20301 3627 1 109.50000 418.400000
1939 20301 11190 1 109.50000 418.400000
1939 20301 20300 1 103.70004 836.800000
3627 20301 11190 1 109.50000 418.400000
3627 20301 20300 1 103.70004 836.800000
11190 20301 20300 1 103.70004 836.800000
20300 20302 20303 1 119.8800511 375.723200
20300 20302 20304 1 120.0200517 532.790560
20303 20302 20304 1 119.8800511 375.723200
20302 20304 20305 1 119.8800511 375.723200
20302 20304 20306 1 120.0200517 532.790560
20305 20304 20306 1 119.8800511 375.723200
20304 20306 20307 1 119.8800511 375.723200
20304 20306 20308 1 120.0200517 532.790560
20307 20306 20308 1 119.8800511 375.723200
20299 20308 20306 1 120.0200517 532.790560
20299 20308 20309 1 119.8800511 375.723200
20306 20308 20309 1 119.8800511 375.723200
20310 20311 20312 1 119.8800511 375.723200
20310 20311 20320 1 119.8800511 375.723200
20312 20311 20320 1 120.0200517 532.790560
20311 20312 20313 1 121.3800518 83.010560
20311 20312 20314 1 120.0200517 532.790560
20313 20312 20314 1 121.3800518 83.010560
1118 20313 3642 1 109.50000 418.400000
1118 20313 3643 1 109.50000 418.400000
1118 20313 20312 1 103.70004 836.800000
3642 20313 3643 1 109.50000 418.400000
3642 20313 20312 1 103.70004 836.800000
3643 20313 20312 1 103.70004 836.800000
20312 20314 20315 1 119.8800511 375.723200
20312 20314 20316 1 120.0200517 532.790560
20315 20314 20316 1 119.8800511 375.723200
20314 20316 20317 1 119.8800511 375.723200
20314 20316 20318 1 120.0200517 532.790560
20317 20316 20318 1 119.8800511 375.723200
20316 20318 20319 1 119.8800511 375.723200
20316 20318 20320 1 120.0200517 532.790560
20319 20318 20320 1 119.8800511 375.723200
20311 20320 20318 1 120.0200517 532.790560
20311 20320 20321 1 119.8800511 375.723200
20318 20320 20321 1 119.8800511 375.723200
20322 20323 20324 1 119.8800511 375.723200
20322 20323 20332 1 119.8800511 375.723200
20324 20323 20332 1 120.0200517 532.790560
20323 20324 20325 1 121.3800518 83.010560
20323 20324 20326 1 120.0200517 532.790560
20325 20324 20326 1 121.3800518 83.010560
2584 20325 3644 1 109.50000 418.400000
2584 20325 3645 1 109.50000 418.400000
2584 20325 20324 1 103.70004 836.800000
3644 20325 3645 1 109.50000 418.400000
3644 20325 20324 1 103.70004 836.800000
3645 20325 20324 1 103.70004 836.800000
20324 20326 20327 1 119.8800511 375.723200
20324 20326 20328 1 120.0200517 532.790560
20327 20326 20328 1 119.8800511 375.723200
20326 20328 20329 1 119.8800511 375.723200
20326 20328 20330 1 120.0200517 532.790560
20329 20328 20330 1 119.8800511 375.723200
20328 20330 20331 1 119.8800511 375.723200
20328 20330 20332 1 120.0200517 532.790560
20331 20330 20332 1 119.8800511 375.723200
20323 20332 20330 1 120.0200517 532.790560
20323 20332 20333 1 119.8800511 375.723200
20330 20332 20333 1 119.8800511 375.723200
20334 20335 20336 1 119.8800511 375.723200
20334 20335 20344 1 119.8800511 375.723200
20336 20335 20344 1 120.0200517 532.790560
20335 20336 20337 1 121.3800518 83.010560
20335 20336 20338 1 120.0200517 532.790560
20337 20336 20338 1 121.3800518 83.010560
3676 20337 3677 1 109.50000 418.400000
3676 20337 11191 1 109.50000 418.400000
3676 20337 20336 1 103.70004 836.800000
3677 20337 11191 1 109.50000 418.400000
3677 20337 20336 1 103.70004 836.800000
11191 20337 20336 1 103.70004 836.800000
20336 20338 20339 1 119.8800511 375.723200
20336 20338 20340 1 120.0200517 532.790560
20339 20338 20340 1 119.8800511 375.723200
20338 20340 20341 1 119.8800511 375.723200
20338 20340 20342 1 120.0200517 532.790560
20341 20340 20342 1 119.8800511 375.723200
20340 20342 20343 1 119.8800511 375.723200
20340 20342 20344 1 120.0200517 532.790560
20343 20342 20344 1 119.8800511 375.723200
20335 20344 20342 1 120.0200517 532.790560
20335 20344 20345 1 119.8800511 375.723200
20342 20344 20345 1 119.8800511 375.723200
20346 20347 20348 1 119.8800511 375.723200
20346 20347 20356 1 119.8800511 375.723200
20348 20347 20356 1 120.0200517 532.790560
20347 20348 20349 1 121.3800518 83.010560
20347 20348 20350 1 120.0200517 532.790560
20349 20348 20350 1 121.3800518 83.010560
2095 20349 3736 1 109.50000 418.400000
2095 20349 3737 1 109.50000 418.400000
2095 20349 20348 1 103.70004 836.800000
3736 20349 3737 1 109.50000 418.400000
3736 20349 20348 1 103.70004 836.800000
3737 20349 20348 1 103.70004 836.800000
20348 20350 20351 1 119.8800511 375.723200
20348 20350 20352 1 120.0200517 532.790560
20351 20350 20352 1 119.8800511 375.723200
20350 20352 20353 1 119.8800511 375.723200
20350 20352 20354 1 120.0200517 532.790560
20353 20352 20354 1 119.8800511 375.723200
20352 20354 20355 1 119.8800511 375.723200
20352 20354 20356 1 120.0200517 532.790560
20355 20354 20356 1 119.8800511 375.723200
20347 20356 20354 1 120.0200517 532.790560
20347 20356 20357 1 119.8800511 375.723200
20354 20356 20357 1 119.8800511 375.723200
20358 20359 20360 1 119.8800511 375.723200
20358 20359 20368 1 119.8800511 375.723200
20360 20359 20368 1 120.0200517 532.790560
20359 20360 20361 1 121.3800518 83.010560
20359 20360 20362 1 120.0200517 532.790560
20361 20360 20362 1 121.3800518 83.010560
458 20361 3771 1 109.50000 418.400000
458 20361 3772 1 109.50000 418.400000
458 20361 20360 1 103.70004 836.800000
3771 20361 3772 1 109.50000 418.400000
3771 20361 20360 1 103.70004 836.800000
3772 20361 20360 1 103.70004 836.800000
20360 20362 20363 1 119.8800511 375.723200
20360 20362 20364 1 120.0200517 532.790560
20363 20362 20364 1 119.8800511 375.723200
20362 20364 20365 1 119.8800511 375.723200
20362 20364 20366 1 120.0200517 532.790560
20365 20364 20366 1 119.8800511 375.723200
20364 20366 20367 1 119.8800511 375.723200
20364 20366 20368 1 120.0200517 532.790560
20367 20366 20368 1 119.8800511 375.723200
20359 20368 20366 1 120.0200517 532.790560
20359 20368 20369 1 119.8800511 375.723200
20366 20368 20369 1 119.8800511 375.723200
20370 20371 20372 1 119.8800511 375.723200
20370 20371 20380 1 119.8800511 375.723200
20372 20371 20380 1 120.0200517 532.790560
20371 20372 20373 1 121.3800518 83.010560
20371 20372 20374 1 120.0200517 532.790560
20373 20372 20374 1 121.3800518 83.010560
2097 20373 3877 1 109.50000 418.400000
2097 20373 3878 1 109.50000 418.400000
2097 20373 20372 1 103.70004 836.800000
3877 20373 3878 1 109.50000 418.400000
3877 20373 20372 1 103.70004 836.800000
3878 20373 20372 1 103.70004 836.800000
20372 20374 20375 1 119.8800511 375.723200
20372 20374 20376 1 120.0200517 532.790560
20375 20374 20376 1 119.8800511 375.723200
20374 20376 20377 1 119.8800511 375.723200
20374 20376 20378 1 120.0200517 532.790560
20377 20376 20378 1 119.8800511 375.723200
20376 20378 20379 1 119.8800511 375.723200
20376 20378 20380 1 120.0200517 532.790560
20379 20378 20380 1 119.8800511 375.723200
20371 20380 20378 1 120.0200517 532.790560
20371 20380 20381 1 119.8800511 375.723200
20378 20380 20381 1 119.8800511 375.723200
20382 20383 20384 1 119.8800511 375.723200
20382 20383 20392 1 119.8800511 375.723200
20384 20383 20392 1 120.0200517 532.790560
20383 20384 20385 1 121.3800518 83.010560
20383 20384 20386 1 120.0200517 532.790560
20385 20384 20386 1 121.3800518 83.010560
3879 20385 3880 1 109.50000 418.400000
3879 20385 3881 1 109.50000 418.400000
3879 20385 20384 1 103.70004 836.800000
3880 20385 3881 1 109.50000 418.400000
3880 20385 20384 1 103.70004 836.800000
3881 20385 20384 1 103.70004 836.800000
20384 20386 20387 1 119.8800511 375.723200
20384 20386 20388 1 120.0200517 532.790560
20387 20386 20388 1 119.8800511 375.723200
20386 20388 20389 1 119.8800511 375.723200
20386 20388 20390 1 120.0200517 532.790560
20389 20388 20390 1 119.8800511 375.723200
20388 20390 20391 1 119.8800511 375.723200
20388 20390 20392 1 120.0200517 532.790560
20391 20390 20392 1 119.8800511 375.723200
20383 20392 20390 1 120.0200517 532.790560
20383 20392 20393 1 119.8800511 375.723200
20390 20392 20393 1 119.8800511 375.723200
20394 20395 20396 1 119.8800511 375.723200
20394 20395 20404 1 119.8800511 375.723200
20396 20395 20404 1 120.0200517 532.790560
20395 20396 20397 1 121.3800518 83.010560
20395 20396 20398 1 120.0200517 532.790560
20397 20396 20398 1 121.3800518 83.010560
1929 20397 3929 1 109.50000 418.400000
1929 20397 3930 1 109.50000 418.400000
1929 20397 20396 1 103.70004 836.800000
3929 20397 3930 1 109.50000 418.400000
3929 20397 20396 1 103.70004 836.800000
3930 20397 20396 1 103.70004 836.800000
20396 20398 20399 1 119.8800511 375.723200
20396 20398 20400 1 120.0200517 532.790560
20399 20398 20400 1 119.8800511 375.723200
20398 20400 20401 1 119.8800511 375.723200
20398 20400 20402 1 120.0200517 532.790560
20401 20400 20402 1 119.8800511 375.723200
20400 20402 20403 1 119.8800511 375.723200
20400 20402 20404 1 120.0200517 532.790560
20403 20402 20404 1 119.8800511 375.723200
20395 20404 20402 1 120.0200517 532.790560
20395 20404 20405 1 119.8800511 375.723200
20402 20404 20405 1 119.8800511 375.723200
20406 20407 20408 1 119.8800511 375.723200
20406 20407 20416 1 119.8800511 375.723200
20408 20407 20416 1 120.0200517 532.790560
20407 20408 20409 1 121.3800518 83.010560
20407 20408 20410 1 120.0200517 532.790560
20409 20408 20410 1 121.3800518 83.010560
986 20409 3936 1 109.50000 418.400000
986 20409 11192 1 109.50000 418.400000
986 20409 20408 1 103.70004 836.800000
3936 20409 11192 1 109.50000 418.400000
3936 20409 20408 1 103.70004 836.800000
11192 20409 20408 1 103.70004 836.800000
20408 20410 20411 1 119.8800511 375.723200
20408 20410 20412 1 120.0200517 532.790560
20411 20410 20412 1 119.8800511 375.723200
20410 20412 20413 1 119.8800511 375.723200
20410 20412 20414 1 120.0200517 532.790560
20413 20412 20414 1 119.8800511 375.723200
20412 20414 20415 1 119.8800511 375.723200
20412 20414 20416 1 120.0200517 532.790560
20415 20414 20416 1 119.8800511 375.723200
20407 20416 20414 1 120.0200517 532.790560
20407 20416 20417 1 119.8800511 375.723200
20414 20416 20417 1 119.8800511 375.723200
20418 20419 20420 1 119.8800511 375.723200
20418 20419 20428 1 119.8800511 375.723200
20420 20419 20428 1 120.0200517 532.790560
20419 20420 20421 1 121.3800518 83.010560
20419 20420 20422 1 120.0200517 532.790560
20421 20420 20422 1 121.3800518 83.010560
1689 20421 4017 1 109.50000 418.400000
1689 20421 4018 1 109.50000 418.400000
1689 20421 20420 1 103.70004 836.800000
4017 20421 4018 1 109.50000 418.400000
4017 20421 20420 1 103.70004 836.800000
4018 20421 20420 1 103.70004 836.800000
20420 20422 20423 1 119.8800511 375.723200
20420 20422 20424 1 120.0200517 532.790560
20423 20422 20424 1 119.8800511 375.723200
20422 20424 20425 1 119.8800511 375.723200
20422 20424 20426 1 120.0200517 532.790560
20425 20424 20426 1 119.8800511 375.723200
20424 20426 20427 1 119.8800511 375.723200
20424 20426 20428 1 120.0200517 532.790560
20427 20426 20428 1 119.8800511 375.723200
20419 20428 20426 1 120.0200517 532.790560
20419 20428 20429 1 119.8800511 375.723200
20426 20428 20429 1 119.8800511 375.723200
20430 20431 20432 1 119.8800511 375.723200
20430 20431 20440 1 119.8800511 375.723200
20432 20431 20440 1 120.0200517 532.790560
20431 20432 20433 1 121.3800518 83.010560
20431 20432 20434 1 120.0200517 532.790560
20433 20432 20434 1 121.3800518 83.010560
718 20433 4028 1 109.50000 418.400000
718 20433 4029 1 109.50000 418.400000
718 20433 20432 1 103.70004 836.800000
4028 20433 4029 1 109.50000 418.400000
4028 20433 20432 1 103.70004 836.800000
4029 20433 20432 1 103.70004 836.800000
20432 20434 20435 1 119.8800511 375.723200
20432 20434 20436 1 120.0200517 532.790560
20435 20434 20436 1 119.8800511 375.723200
20434 20436 20437 1 119.8800511 375.723200
20434 20436 20438 1 120.0200517 532.790560
20437 20436 20438 1 119.8800511 375.723200
20436 20438 20439 1 119.8800511 375.723200
20436 20438 20440 1 120.0200517 532.790560
20439 20438 20440 1 119.8800511 375.723200
20431 20440 20438 1 120.0200517 532.790560
20431 20440 20441 1 119.8800511 375.723200
20438 20440 20441 1 119.8800511 375.723200
20442 20443 20444 1 119.8800511 375.723200
20442 20443 20452 1 119.8800511 375.723200
20444 20443 20452 1 120.0200517 532.790560
20443 20444 20445 1 121.3800518 83.010560
20443 20444 20446 1 120.0200517 532.790560
20445 20444 20446 1 121.3800518 83.010560
840 20445 4033 1 109.50000 418.400000
840 20445 4034 1 109.50000 418.400000
840 20445 20444 1 103.70004 836.800000
4033 20445 4034 1 109.50000 418.400000
4033 20445 20444 1 103.70004 836.800000
4034 20445 20444 1 103.70004 836.800000
20444 20446 20447 1 119.8800511 375.723200
20444 20446 20448 1 120.0200517 532.790560
20447 20446 20448 1 119.8800511 375.723200
20446 20448 20449 1 119.8800511 375.723200
20446 20448 20450 1 120.0200517 532.790560
20449 20448 20450 1 119.8800511 375.723200
20448 20450 20451 1 119.8800511 375.723200
20448 20450 20452 1 120.0200517 532.790560
20451 20450 20452 1 119.8800511 375.723200
20443 20452 20450 1 120.0200517 532.790560
20443 20452 20453 1 119.8800511 375.723200
20450 20452 20453 1 119.8800511 375.723200
20454 20455 20456 1 119.8800511 375.723200
20454 20455 20464 1 119.8800511 375.723200
20456 20455 20464 1 120.0200517 532.790560
20455 20456 20457 1 121.3800518 83.010560
20455 20456 20458 1 120.0200517 532.790560
20457 20456 20458 1 121.3800518 83.010560
1170 20457 4041 1 109.50000 418.400000
1170 20457 4042 1 109.50000 418.400000
1170 20457 20456 1 103.70004 836.800000
4041 20457 4042 1 109.50000 418.400000
4041 20457 20456 1 103.70004 836.800000
4042 20457 20456 1 103.70004 836.800000
20456 20458 20459 1 119.8800511 375.723200
20456 20458 20460 1 120.0200517 532.790560
20459 20458 20460 1 119.8800511 375.723200
20458 20460 20461 1 119.8800511 375.723200
20458 20460 20462 1 120.0200517 532.790560
20461 20460 20462 1 119.8800511 375.723200
20460 20462 20463 1 119.8800511 375.723200
20460 20462 20464 1 120.0200517 532.790560
20463 20462 20464 1 119.8800511 375.723200
20455 20464 20462 1 120.0200517 532.790560
20455 20464 20465 1 119.8800511 375.723200
20462 20464 20465 1 119.8800511 375.723200
20466 20467 20468 1 119.8800511 375.723200
20466 20467 20476 1 119.8800511 375.723200
20468 20467 20476 1 120.0200517 532.790560
20467 20468 20469 1 121.3800518 83.010560
20467 20468 20470 1 120.0200517 532.790560
20469 20468 20470 1 121.3800518 83.010560
168 20469 4102 1 109.50000 418.400000
168 20469 4103 1 109.50000 418.400000
168 20469 20468 1 103.70004 836.800000
4102 20469 4103 1 109.50000 418.400000
4102 20469 20468 1 103.70004 836.800000
4103 20469 20468 1 103.70004 836.800000
20468 20470 20471 1 119.8800511 375.723200
20468 20470 20472 1 120.0200517 532.790560
20471 20470 20472 1 119.8800511 375.723200
20470 20472 20473 1 119.8800511 375.723200
20470 20472 20474 1 120.0200517 532.790560
20473 20472 20474 1 119.8800511 375.723200
20472 20474 20475 1 119.8800511 375.723200
20472 20474 20476 1 120.0200517 532.790560
20475 20474 20476 1 119.8800511 375.723200
20467 20476 20474 1 120.0200517 532.790560
20467 20476 20477 1 119.8800511 375.723200
20474 20476 20477 1 119.8800511 375.723200
20478 20479 20480 1 119.8800511 375.723200
20478 20479 20488 1 119.8800511 375.723200
20480 20479 20488 1 120.0200517 532.790560
20479 20480 20481 1 121.3800518 83.010560
20479 20480 20482 1 120.0200517 532.790560
20481 20480 20482 1 121.3800518 83.010560
4108 20481 4109 1 109.50000 418.400000
4108 20481 4110 1 109.50000 418.400000
4108 20481 20480 1 103.70004 836.800000
4109 20481 4110 1 109.50000 418.400000
4109 20481 20480 1 103.70004 836.800000
4110 20481 20480 1 103.70004 836.800000
20480 20482 20483 1 119.8800511 375.723200
20480 20482 20484 1 120.0200517 532.790560
20483 20482 20484 1 119.8800511 375.723200
20482 20484 20485 1 119.8800511 375.723200
20482 20484 20486 1 120.0200517 532.790560
20485 20484 20486 1 119.8800511 375.723200
20484 20486 20487 1 119.8800511 375.723200
20484 20486 20488 1 120.0200517 532.790560
20487 20486 20488 1 119.8800511 375.723200
20479 20488 20486 1 120.0200517 532.790560
20479 20488 20489 1 119.8800511 375.723200
20486 20488 20489 1 119.8800511 375.723200
20490 20491 20492 1 119.8800511 375.723200
20490 20491 20500 1 119.8800511 375.723200
20492 20491 20500 1 120.0200517 532.790560
20491 20492 20493 1 121.3800518 83.010560
20491 20492 20494 1 120.0200517 532.790560
20493 20492 20494 1 121.3800518 83.010560
480 20493 3500 1 109.50000 418.400000
480 20493 4167 1 109.50000 418.400000
480 20493 20492 1 103.70004 836.800000
3500 20493 4167 1 109.50000 418.400000
3500 20493 20492 1 103.70004 836.800000
4167 20493 20492 1 103.70004 836.800000
20492 20494 20495 1 119.8800511 375.723200
20492 20494 20496 1 120.0200517 532.790560
20495 20494 20496 1 119.8800511 375.723200
20494 20496 20497 1 119.8800511 375.723200
20494 20496 20498 1 120.0200517 532.790560
20497 20496 20498 1 119.8800511 375.723200
20496 20498 20499 1 119.8800511 375.723200
20496 20498 20500 1 120.0200517 532.790560
20499 20498 20500 1 119.8800511 375.723200
20491 20500 20498 1 120.0200517 532.790560
20491 20500 20501 1 119.8800511 375.723200
20498 20500 20501 1 119.8800511 375.723200
20502 20503 20504 1 119.8800511 375.723200
20502 20503 20512 1 119.8800511 375.723200
20504 20503 20512 1 120.0200517 532.790560
20503 20504 20505 1 121.3800518 83.010560
20503 20504 20506 1 120.0200517 532.790560
20505 20504 20506 1 121.3800518 83.010560
2684 20505 4172 1 109.50000 418.400000
2684 20505 11193 1 109.50000 418.400000
2684 20505 20504 1 103.70004 836.800000
4172 20505 11193 1 109.50000 418.400000
4172 20505 20504 1 103.70004 836.800000
11193 20505 20504 1 103.70004 836.800000
20504 20506 20507 1 119.8800511 375.723200
20504 20506 20508 1 120.0200517 532.790560
20507 20506 20508 1 119.8800511 375.723200
20506 20508 20509 1 119.8800511 375.723200
20506 20508 20510 1 120.0200517 532.790560
20509 20508 20510 1 119.8800511 375.723200
20508 20510 20511 1 119.8800511 375.723200
20508 20510 20512 1 120.0200517 532.790560
20511 20510 20512 1 119.8800511 375.723200
20503 20512 20510 1 120.0200517 532.790560
20503 20512 20513 1 119.8800511 375.723200
20510 20512 20513 1 119.8800511 375.723200
20514 20515 20516 1 119.8800511 375.723200
20514 20515 20524 1 119.8800511 375.723200
20516 20515 20524 1 120.0200517 532.790560
20515 20516 20517 1 121.3800518 83.010560
20515 20516 20518 1 120.0200517 532.790560
20517 20516 20518 1 121.3800518 83.010560
4208 20517 4209 1 109.50000 418.400000
4208 20517 11194 1 109.50000 418.400000
4208 20517 20516 1 103.70004 836.800000
4209 20517 11194 1 109.50000 418.400000
4209 20517 20516 1 103.70004 836.800000
11194 20517 20516 1 103.70004 836.800000
20516 20518 20519 1 119.8800511 375.723200
20516 20518 20520 1 120.0200517 532.790560
20519 20518 20520 1 119.8800511 375.723200
20518 20520 20521 1 119.8800511 375.723200
20518 20520 20522 1 120.0200517 532.790560
20521 20520 20522 1 119.8800511 375.723200
20520 20522 20523 1 119.8800511 375.723200
20520 20522 20524 1 120.0200517 532.790560
20523 20522 20524 1 119.8800511 375.723200
20515 20524 20522 1 120.0200517 532.790560
20515 20524 20525 1 119.8800511 375.723200
20522 20524 20525 1 119.8800511 375.723200
20526 20527 20528 1 119.8800511 375.723200
20526 20527 20536 1 119.8800511 375.723200
20528 20527 20536 1 120.0200517 532.790560
20527 20528 20529 1 121.3800518 83.010560
20527 20528 20530 1 120.0200517 532.790560
20529 20528 20530 1 121.3800518 83.010560
1699 20529 4236 1 109.50000 418.400000
1699 20529 11195 1 109.50000 418.400000
1699 20529 20528 1 103.70004 836.800000
4236 20529 11195 1 109.50000 418.400000
4236 20529 20528 1 103.70004 836.800000
11195 20529 20528 1 103.70004 836.800000
20528 20530 20531 1 119.8800511 375.723200
20528 20530 20532 1 120.0200517 532.790560
20531 20530 20532 1 119.8800511 375.723200
20530 20532 20533 1 119.8800511 375.723200
20530 20532 20534 1 120.0200517 532.790560
20533 20532 20534 1 119.8800511 375.723200
20532 20534 20535 1 119.8800511 375.723200
20532 20534 20536 1 120.0200517 532.790560
20535 20534 20536 1 119.8800511 375.723200
20527 20536 20534 1 120.0200517 532.790560
20527 20536 20537 1 119.8800511 375.723200
20534 20536 20537 1 119.8800511 375.723200
20538 20539 20540 1 119.8800511 375.723200
20538 20539 20548 1 119.8800511 375.723200
20540 20539 20548 1 120.0200517 532.790560
20539 20540 20541 1 121.3800518 83.010560
20539 20540 20542 1 120.0200517 532.790560
20541 20540 20542 1 121.3800518 83.010560
4241 20541 4242 1 109.50000 418.400000
4241 20541 4243 1 109.50000 418.400000
4241 20541 20540 1 103.70004 836.800000
4242 20541 4243 1 109.50000 418.400000
4242 20541 20540 1 103.70004 836.800000
4243 20541 20540 1 103.70004 836.800000
20540 20542 20543 1 119.8800511 375.723200
20540 20542 20544 1 120.0200517 532.790560
20543 20542 20544 1 119.8800511 375.723200
20542 20544 20545 1 119.8800511 375.723200
20542 20544 20546 1 120.0200517 532.790560
20545 20544 20546 1 119.8800511 375.723200
20544 20546 20547 1 119.8800511 375.723200
20544 20546 20548 1 120.0200517 532.790560
20547 20546 20548 1 119.8800511 375.723200
20539 20548 20546 1 120.0200517 532.790560
20539 20548 20549 1 119.8800511 375.723200
20546 20548 20549 1 119.8800511 375.723200
20550 20551 20552 1 119.8800511 375.723200
20550 20551 20560 1 119.8800511 375.723200
20552 20551 20560 1 120.0200517 532.790560
20551 20552 20553 1 121.3800518 83.010560
20551 20552 20554 1 120.0200517 532.790560
20553 20552 20554 1 121.3800518 83.010560
4075 20553 4297 1 109.50000 418.400000
4075 20553 4298 1 109.50000 418.400000
4075 20553 20552 1 103.70004 836.800000
4297 20553 4298 1 109.50000 418.400000
4297 20553 20552 1 103.70004 836.800000
4298 20553 20552 1 103.70004 836.800000
20552 20554 20555 1 119.8800511 375.723200
20552 20554 20556 1 120.0200517 532.790560
20555 20554 20556 1 119.8800511 375.723200
20554 20556 20557 1 119.8800511 375.723200
20554 20556 20558 1 120.0200517 532.790560
20557 20556 20558 1 119.8800511 375.723200
20556 20558 20559 1 119.8800511 375.723200
20556 20558 20560 1 120.0200517 532.790560
20559 20558 20560 1 119.8800511 375.723200
20551 20560 20558 1 120.0200517 532.790560
20551 20560 20561 1 119.8800511 375.723200
20558 20560 20561 1 119.8800511 375.723200
20562 20563 20564 1 119.8800511 375.723200
20562 20563 20572 1 119.8800511 375.723200
20564 20563 20572 1 120.0200517 532.790560
20563 20564 20565 1 121.3800518 83.010560
20563 20564 20566 1 120.0200517 532.790560
20565 20564 20566 1 121.3800518 83.010560
4325 20565 4326 1 109.50000 418.400000
4325 20565 11150 1 109.50000 418.400000
4325 20565 20564 1 103.70004 836.800000
4326 20565 11150 1 109.50000 418.400000
4326 20565 20564 1 103.70004 836.800000
11150 20565 20564 1 103.70004 836.800000
20564 20566 20567 1 119.8800511 375.723200
20564 20566 20568 1 120.0200517 532.790560
20567 20566 20568 1 119.8800511 375.723200
20566 20568 20569 1 119.8800511 375.723200
20566 20568 20570 1 120.0200517 532.790560
20569 20568 20570 1 119.8800511 375.723200
20568 20570 20571 1 119.8800511 375.723200
20568 20570 20572 1 120.0200517 532.790560
20571 20570 20572 1 119.8800511 375.723200
20563 20572 20570 1 120.0200517 532.790560
20563 20572 20573 1 119.8800511 375.723200
20570 20572 20573 1 119.8800511 375.723200
20574 20575 20576 1 119.8800511 375.723200
20574 20575 20584 1 119.8800511 375.723200
20576 20575 20584 1 120.0200517 532.790560
20575 20576 20577 1 121.3800518 83.010560
20575 20576 20578 1 120.0200517 532.790560
20577 20576 20578 1 121.3800518 83.010560
4338 20577 4339 1 109.50000 418.400000
4338 20577 4340 1 109.50000 418.400000
4338 20577 20576 1 103.70004 836.800000
4339 20577 4340 1 109.50000 418.400000
4339 20577 20576 1 103.70004 836.800000
4340 20577 20576 1 103.70004 836.800000
20576 20578 20579 1 119.8800511 375.723200
20576 20578 20580 1 120.0200517 532.790560
20579 20578 20580 1 119.8800511 375.723200
20578 20580 20581 1 119.8800511 375.723200
20578 20580 20582 1 120.0200517 532.790560
20581 20580 20582 1 119.8800511 375.723200
20580 20582 20583 1 119.8800511 375.723200
20580 20582 20584 1 120.0200517 532.790560
20583 20582 20584 1 119.8800511 375.723200
20575 20584 20582 1 120.0200517 532.790560
20575 20584 20585 1 119.8800511 375.723200
20582 20584 20585 1 119.8800511 375.723200
20586 20587 20588 1 119.8800511 375.723200
20586 20587 20596 1 119.8800511 375.723200
20588 20587 20596 1 120.0200517 532.790560
20587 20588 20589 1 121.3800518 83.010560
20587 20588 20590 1 120.0200517 532.790560
20589 20588 20590 1 121.3800518 83.010560
4398 20589 4399 1 109.50000 418.400000
4398 20589 4400 1 109.50000 418.400000
4398 20589 20588 1 103.70004 836.800000
4399 20589 4400 1 109.50000 418.400000
4399 20589 20588 1 103.70004 836.800000
4400 20589 20588 1 103.70004 836.800000
20588 20590 20591 1 119.8800511 375.723200
20588 20590 20592 1 120.0200517 532.790560
20591 20590 20592 1 119.8800511 375.723200
20590 20592 20593 1 119.8800511 375.723200
20590 20592 20594 1 120.0200517 532.790560
20593 20592 20594 1 119.8800511 375.723200
20592 20594 20595 1 119.8800511 375.723200
20592 20594 20596 1 120.0200517 532.790560
20595 20594 20596 1 119.8800511 375.723200
20587 20596 20594 1 120.0200517 532.790560
20587 20596 20597 1 119.8800511 375.723200
20594 20596 20597 1 119.8800511 375.723200
20598 20599 20600 1 119.8800511 375.723200
20598 20599 20608 1 119.8800511 375.723200
20600 20599 20608 1 120.0200517 532.790560
20599 20600 20601 1 121.3800518 83.010560
20599 20600 20602 1 120.0200517 532.790560
20601 20600 20602 1 121.3800518 83.010560
4432 20601 4433 1 109.50000 418.400000
4432 20601 4434 1 109.50000 418.400000
4432 20601 20600 1 103.70004 836.800000
4433 20601 4434 1 109.50000 418.400000
4433 20601 20600 1 103.70004 836.800000
4434 20601 20600 1 103.70004 836.800000
20600 20602 20603 1 119.8800511 375.723200
20600 20602 20604 1 120.0200517 532.790560
20603 20602 20604 1 119.8800511 375.723200
20602 20604 20605 1 119.8800511 375.723200
20602 20604 20606 1 120.0200517 532.790560
20605 20604 20606 1 119.8800511 375.723200
20604 20606 20607 1 119.8800511 375.723200
20604 20606 20608 1 120.0200517 532.790560
20607 20606 20608 1 119.8800511 375.723200
20599 20608 20606 1 120.0200517 532.790560
20599 20608 20609 1 119.8800511 375.723200
20606 20608 20609 1 119.8800511 375.723200
20610 20611 20612 1 119.8800511 375.723200
20610 20611 20620 1 119.8800511 375.723200
20612 20611 20620 1 120.0200517 532.790560
20611 20612 20613 1 121.3800518 83.010560
20611 20612 20614 1 120.0200517 532.790560
20613 20612 20614 1 121.3800518 83.010560
2217 20613 4435 1 109.50000 418.400000
2217 20613 11144 1 109.50000 418.400000
2217 20613 20612 1 103.70004 836.800000
4435 20613 11144 1 109.50000 418.400000
4435 20613 20612 1 103.70004 836.800000
11144 20613 20612 1 103.70004 836.800000
20612 20614 20615 1 119.8800511 375.723200
20612 20614 20616 1 120.0200517 532.790560
20615 20614 20616 1 119.8800511 375.723200
20614 20616 20617 1 119.8800511 375.723200
20614 20616 20618 1 120.0200517 532.790560
20617 20616 20618 1 119.8800511 375.723200
20616 20618 20619 1 119.8800511 375.723200
20616 20618 20620 1 120.0200517 532.790560
20619 20618 20620 1 119.8800511 375.723200
20611 20620 20618 1 120.0200517 532.790560
20611 20620 20621 1 119.8800511 375.723200
20618 20620 20621 1 119.8800511 375.723200
20622 20623 20624 1 119.8800511 375.723200
20622 20623 20632 1 119.8800511 375.723200
20624 20623 20632 1 120.0200517 532.790560
20623 20624 20625 1 121.3800518 83.010560
20623 20624 20626 1 120.0200517 532.790560
20625 20624 20626 1 121.3800518 83.010560
4476 20625 4477 1 109.50000 418.400000
4476 20625 4478 1 109.50000 418.400000
4476 20625 20624 1 103.70004 836.800000
4477 20625 4478 1 109.50000 418.400000
4477 20625 20624 1 103.70004 836.800000
4478 20625 20624 1 103.70004 836.800000
20624 20626 20627 1 119.8800511 375.723200
20624 20626 20628 1 120.0200517 532.790560
20627 20626 20628 1 119.8800511 375.723200
20626 20628 20629 1 119.8800511 375.723200
20626 20628 20630 1 120.0200517 532.790560
20629 20628 20630 1 119.8800511 375.723200
20628 20630 20631 1 119.8800511 375.723200
20628 20630 20632 1 120.0200517 532.790560
20631 20630 20632 1 119.8800511 375.723200
20623 20632 20630 1 120.0200517 532.790560
20623 20632 20633 1 119.8800511 375.723200
20630 20632 20633 1 119.8800511 375.723200
20634 20635 20636 1 119.8800511 375.723200
20634 20635 20644 1 119.8800511 375.723200
20636 20635 20644 1 120.0200517 532.790560
20635 20636 20637 1 121.3800518 83.010560
20635 20636 20638 1 120.0200517 532.790560
20637 20636 20638 1 121.3800518 83.010560
4479 20637 4481 1 109.50000 418.400000
4479 20637 11196 1 109.50000 418.400000
4479 20637 20636 1 103.70004 836.800000
4481 20637 11196 1 109.50000 418.400000
4481 20637 20636 1 103.70004 836.800000
11196 20637 20636 1 103.70004 836.800000
20636 20638 20639 1 119.8800511 375.723200
20636 20638 20640 1 120.0200517 532.790560
20639 20638 20640 1 119.8800511 375.723200
20638 20640 20641 1 119.8800511 375.723200
20638 20640 20642 1 120.0200517 532.790560
20641 20640 20642 1 119.8800511 375.723200
20640 20642 20643 1 119.8800511 375.723200
20640 20642 20644 1 120.0200517 532.790560
20643 20642 20644 1 119.8800511 375.723200
20635 20644 20642 1 120.0200517 532.790560
20635 20644 20645 1 119.8800511 375.723200
20642 20644 20645 1 119.8800511 375.723200
20646 20647 20648 1 119.8800511 375.723200
20646 20647 20656 1 119.8800511 375.723200
20648 20647 20656 1 120.0200517 532.790560
20647 20648 20649 1 121.3800518 83.010560
20647 20648 20650 1 120.0200517 532.790560
20649 20648 20650 1 121.3800518 83.010560
3303 20649 3365 1 109.50000 418.400000
3303 20649 11154 1 109.50000 418.400000
3303 20649 20648 1 103.70004 836.800000
3365 20649 11154 1 109.50000 418.400000
3365 20649 20648 1 103.70004 836.800000
11154 20649 20648 1 103.70004 836.800000
20648 20650 20651 1 119.8800511 375.723200
20648 20650 20652 1 120.0200517 532.790560
20651 20650 20652 1 119.8800511 375.723200
20650 20652 20653 1 119.8800511 375.723200
20650 20652 20654 1 120.0200517 532.790560
20653 20652 20654 1 119.8800511 375.723200
20652 20654 20655 1 119.8800511 375.723200
20652 20654 20656 1 120.0200517 532.790560
20655 20654 20656 1 119.8800511 375.723200
20647 20656 20654 1 120.0200517 532.790560
20647 20656 20657 1 119.8800511 375.723200
20654 20656 20657 1 119.8800511 375.723200
20658 20659 20660 1 119.8800511 375.723200
20658 20659 20668 1 119.8800511 375.723200
20660 20659 20668 1 120.0200517 532.790560
20659 20660 20661 1 121.3800518 83.010560
20659 20660 20662 1 120.0200517 532.790560
20661 20660 20662 1 121.3800518 83.010560
4509 20661 4510 1 109.50000 418.400000
4509 20661 11197 1 109.50000 418.400000
4509 20661 20660 1 103.70004 836.800000
4510 20661 11197 1 109.50000 418.400000
4510 20661 20660 1 103.70004 836.800000
11197 20661 20660 1 103.70004 836.800000
20660 20662 20663 1 119.8800511 375.723200
20660 20662 20664 1 120.0200517 532.790560
20663 20662 20664 1 119.8800511 375.723200
20662 20664 20665 1 119.8800511 375.723200
20662 20664 20666 1 120.0200517 532.790560
20665 20664 20666 1 119.8800511 375.723200
20664 20666 20667 1 119.8800511 375.723200
20664 20666 20668 1 120.0200517 532.790560
20667 20666 20668 1 119.8800511 375.723200
20659 20668 20666 1 120.0200517 532.790560
20659 20668 20669 1 119.8800511 375.723200
20666 20668 20669 1 119.8800511 375.723200
20670 20671 20672 1 119.8800511 375.723200
20670 20671 20680 1 119.8800511 375.723200
20672 20671 20680 1 120.0200517 532.790560
20671 20672 20673 1 121.3800518 83.010560
20671 20672 20674 1 120.0200517 532.790560
20673 20672 20674 1 121.3800518 83.010560
4511 20673 4512 1 109.50000 418.400000
4511 20673 4513 1 109.50000 418.400000
4511 20673 20672 1 103.70004 836.800000
4512 20673 4513 1 109.50000 418.400000
4512 20673 20672 1 103.70004 836.800000
4513 20673 20672 1 103.70004 836.800000
20672 20674 20675 1 119.8800511 375.723200
20672 20674 20676 1 120.0200517 532.790560
20675 20674 20676 1 119.8800511 375.723200
20674 20676 20677 1 119.8800511 375.723200
20674 20676 20678 1 120.0200517 532.790560
20677 20676 20678 1 119.8800511 375.723200
20676 20678 20679 1 119.8800511 375.723200
20676 20678 20680 1 120.0200517 532.790560
20679 20678 20680 1 119.8800511 375.723200
20671 20680 20678 1 120.0200517 532.790560
20671 20680 20681 1 119.8800511 375.723200
20678 20680 20681 1 119.8800511 375.723200
20682 20683 20684 1 119.8800511 375.723200
20682 20683 20692 1 119.8800511 375.723200
20684 20683 20692 1 120.0200517 532.790560
20683 20684 20685 1 121.3800518 83.010560
20683 20684 20686 1 120.0200517 532.790560
20685 20684 20686 1 121.3800518 83.010560
4515 20685 4516 1 109.50000 418.400000
4515 20685 4517 1 109.50000 418.400000
4515 20685 20684 1 103.70004 836.800000
4516 20685 4517 1 109.50000 418.400000
4516 20685 20684 1 103.70004 836.800000
4517 20685 20684 1 103.70004 836.800000
20684 20686 20687 1 119.8800511 375.723200
20684 20686 20688 1 120.0200517 532.790560
20687 20686 20688 1 119.8800511 375.723200
20686 20688 20689 1 119.8800511 375.723200
20686 20688 20690 1 120.0200517 532.790560
20689 20688 20690 1 119.8800511 375.723200
20688 20690 20691 1 119.8800511 375.723200
20688 20690 20692 1 120.0200517 532.790560
20691 20690 20692 1 119.8800511 375.723200
20683 20692 20690 1 120.0200517 532.790560
20683 20692 20693 1 119.8800511 375.723200
20690 20692 20693 1 119.8800511 375.723200
20694 20695 20696 1 119.8800511 375.723200
20694 20695 20704 1 119.8800511 375.723200
20696 20695 20704 1 120.0200517 532.790560
20695 20696 20697 1 121.3800518 83.010560
20695 20696 20698 1 120.0200517 532.790560
20697 20696 20698 1 121.3800518 83.010560
796 20697 4530 1 109.50000 418.400000
796 20697 9194 1 109.50000 418.400000
796 20697 20696 1 103.70004 836.800000
4530 20697 9194 1 109.50000 418.400000
4530 20697 20696 1 103.70004 836.800000
9194 20697 20696 1 103.70004 836.800000
20696 20698 20699 1 119.8800511 375.723200
20696 20698 20700 1 120.0200517 532.790560
20699 20698 20700 1 119.8800511 375.723200
20698 20700 20701 1 119.8800511 375.723200
20698 20700 20702 1 120.0200517 532.790560
20701 20700 20702 1 119.8800511 375.723200
20700 20702 20703 1 119.8800511 375.723200
20700 20702 20704 1 120.0200517 532.790560
20703 20702 20704 1 119.8800511 375.723200
20695 20704 20702 1 120.0200517 532.790560
20695 20704 20705 1 119.8800511 375.723200
20702 20704 20705 1 119.8800511 375.723200
20706 20707 20708 1 119.8800511 375.723200
20706 20707 20716 1 119.8800511 375.723200
20708 20707 20716 1 120.0200517 532.790560
20707 20708 20709 1 121.3800518 83.010560
20707 20708 20710 1 120.0200517 532.790560
20709 20708 20710 1 121.3800518 83.010560
4534 20709 4535 1 109.50000 418.400000
4534 20709 11198 1 109.50000 418.400000
4534 20709 20708 1 103.70004 836.800000
4535 20709 11198 1 109.50000 418.400000
4535 20709 20708 1 103.70004 836.800000
11198 20709 20708 1 103.70004 836.800000
20708 20710 20711 1 119.8800511 375.723200
20708 20710 20712 1 120.0200517 532.790560
20711 20710 20712 1 119.8800511 375.723200
20710 20712 20713 1 119.8800511 375.723200
20710 20712 20714 1 120.0200517 532.790560
20713 20712 20714 1 119.8800511 375.723200
20712 20714 20715 1 119.8800511 375.723200
20712 20714 20716 1 120.0200517 532.790560
20715 20714 20716 1 119.8800511 375.723200
20707 20716 20714 1 120.0200517 532.790560
20707 20716 20717 1 119.8800511 375.723200
20714 20716 20717 1 119.8800511 375.723200
20718 20719 20720 1 119.8800511 375.723200
20718 20719 20728 1 119.8800511 375.723200
20720 20719 20728 1 120.0200517 532.790560
20719 20720 20721 1 121.3800518 83.010560
20719 20720 20722 1 120.0200517 532.790560
20721 20720 20722 1 121.3800518 83.010560
4586 20721 4587 1 109.50000 418.400000
4586 20721 4588 1 109.50000 418.400000
4586 20721 20720 1 103.70004 836.800000
4587 20721 4588 1 109.50000 418.400000
4587 20721 20720 1 103.70004 836.800000
4588 20721 20720 1 103.70004 836.800000
20720 20722 20723 1 119.8800511 375.723200
20720 20722 20724 1 120.0200517 532.790560
20723 20722 20724 1 119.8800511 375.723200
20722 20724 20725 1 119.8800511 375.723200
20722 20724 20726 1 120.0200517 532.790560
20725 20724 20726 1 119.8800511 375.723200
20724 20726 20727 1 119.8800511 375.723200
20724 20726 20728 1 120.0200517 532.790560
20727 20726 20728 1 119.8800511 375.723200
20719 20728 20726 1 120.0200517 532.790560
20719 20728 20729 1 119.8800511 375.723200
20726 20728 20729 1 119.8800511 375.723200
20730 20731 20732 1 119.8800511 375.723200
20730 20731 20740 1 119.8800511 375.723200
20732 20731 20740 1 120.0200517 532.790560
20731 20732 20733 1 121.3800518 83.010560
20731 20732 20734 1 120.0200517 532.790560
20733 20732 20734 1 121.3800518 83.010560
3219 20733 4603 1 109.50000 418.400000
3219 20733 4604 1 109.50000 418.400000
3219 20733 20732 1 103.70004 836.800000
4603 20733 4604 1 109.50000 418.400000
4603 20733 20732 1 103.70004 836.800000
4604 20733 20732 1 103.70004 836.800000
20732 20734 20735 1 119.8800511 375.723200
20732 20734 20736 1 120.0200517 532.790560
20735 20734 20736 1 119.8800511 375.723200
20734 20736 20737 1 119.8800511 375.723200
20734 20736 20738 1 120.0200517 532.790560
20737 20736 20738 1 119.8800511 375.723200
20736 20738 20739 1 119.8800511 375.723200
20736 20738 20740 1 120.0200517 532.790560
20739 20738 20740 1 119.8800511 375.723200
20731 20740 20738 1 120.0200517 532.790560
20731 20740 20741 1 119.8800511 375.723200
20738 20740 20741 1 119.8800511 375.723200
20742 20743 20744 1 119.8800511 375.723200
20742 20743 20752 1 119.8800511 375.723200
20744 20743 20752 1 120.0200517 532.790560
20743 20744 20745 1 121.3800518 83.010560
20743 20744 20746 1 120.0200517 532.790560
20745 20744 20746 1 121.3800518 83.010560
4418 20745 4623 1 109.50000 418.400000
4418 20745 4624 1 109.50000 418.400000
4418 20745 20744 1 103.70004 836.800000
4623 20745 4624 1 109.50000 418.400000
4623 20745 20744 1 103.70004 836.800000
4624 20745 20744 1 103.70004 836.800000
20744 20746 20747 1 119.8800511 375.723200
20744 20746 20748 1 120.0200517 532.790560
20747 20746 20748 1 119.8800511 375.723200
20746 20748 20749 1 119.8800511 375.723200
20746 20748 20750 1 120.0200517 532.790560
20749 20748 20750 1 119.8800511 375.723200
20748 20750 20751 1 119.8800511 375.723200
20748 20750 20752 1 120.0200517 532.790560
20751 20750 20752 1 119.8800511 375.723200
20743 20752 20750 1 120.0200517 532.790560
20743 20752 20753 1 119.8800511 375.723200
20750 20752 20753 1 119.8800511 375.723200
20754 20755 20756 1 119.8800511 375.723200
20754 20755 20764 1 119.8800511 375.723200
20756 20755 20764 1 120.0200517 532.790560
20755 20756 20757 1 121.3800518 83.010560
20755 20756 20758 1 120.0200517 532.790560
20757 20756 20758 1 121.3800518 83.010560
4636 20757 4637 1 109.50000 418.400000
4636 20757 4638 1 109.50000 418.400000
4636 20757 20756 1 103.70004 836.800000
4637 20757 4638 1 109.50000 418.400000
4637 20757 20756 1 103.70004 836.800000
4638 20757 20756 1 103.70004 836.800000
20756 20758 20759 1 119.8800511 375.723200
20756 20758 20760 1 120.0200517 532.790560
20759 20758 20760 1 119.8800511 375.723200
20758 20760 20761 1 119.8800511 375.723200
20758 20760 20762 1 120.0200517 532.790560
20761 20760 20762 1 119.8800511 375.723200
20760 20762 20763 1 119.8800511 375.723200
20760 20762 20764 1 120.0200517 532.790560
20763 20762 20764 1 119.8800511 375.723200
20755 20764 20762 1 120.0200517 532.790560
20755 20764 20765 1 119.8800511 375.723200
20762 20764 20765 1 119.8800511 375.723200
20766 20767 20768 1 119.8800511 375.723200
20766 20767 20776 1 119.8800511 375.723200
20768 20767 20776 1 120.0200517 532.790560
20767 20768 20769 1 121.3800518 83.010560
20767 20768 20770 1 120.0200517 532.790560
20769 20768 20770 1 121.3800518 83.010560
4691 20769 4692 1 109.50000 418.400000
4691 20769 4693 1 109.50000 418.400000
4691 20769 20768 1 103.70004 836.800000
4692 20769 4693 1 109.50000 418.400000
4692 20769 20768 1 103.70004 836.800000
4693 20769 20768 1 103.70004 836.800000
20768 20770 20771 1 119.8800511 375.723200
20768 20770 20772 1 120.0200517 532.790560
20771 20770 20772 1 119.8800511 375.723200
20770 20772 20773 1 119.8800511 375.723200
20770 20772 20774 1 120.0200517 532.790560
20773 20772 20774 1 119.8800511 375.723200
20772 20774 20775 1 119.8800511 375.723200
20772 20774 20776 1 120.0200517 532.790560
20775 20774 20776 1 119.8800511 375.723200
20767 20776 20774 1 120.0200517 532.790560
20767 20776 20777 1 119.8800511 375.723200
20774 20776 20777 1 119.8800511 375.723200
20778 20779 20780 1 119.8800511 375.723200
20778 20779 20788 1 119.8800511 375.723200
20780 20779 20788 1 120.0200517 532.790560
20779 20780 20781 1 121.3800518 83.010560
20779 20780 20782 1 120.0200517 532.790560
20781 20780 20782 1 121.3800518 83.010560
4648 20781 4700 1 109.50000 418.400000
4648 20781 4701 1 109.50000 418.400000
4648 20781 20780 1 103.70004 836.800000
4700 20781 4701 1 109.50000 418.400000
4700 20781 20780 1 103.70004 836.800000
4701 20781 20780 1 103.70004 836.800000
20780 20782 20783 1 119.8800511 375.723200
20780 20782 20784 1 120.0200517 532.790560
20783 20782 20784 1 119.8800511 375.723200
20782 20784 20785 1 119.8800511 375.723200
20782 20784 20786 1 120.0200517 532.790560
20785 20784 20786 1 119.8800511 375.723200
20784 20786 20787 1 119.8800511 375.723200
20784 20786 20788 1 120.0200517 532.790560
20787 20786 20788 1 119.8800511 375.723200
20779 20788 20786 1 120.0200517 532.790560
20779 20788 20789 1 119.8800511 375.723200
20786 20788 20789 1 119.8800511 375.723200
20790 20791 20792 1 119.8800511 375.723200
20790 20791 20800 1 119.8800511 375.723200
20792 20791 20800 1 120.0200517 532.790560
20791 20792 20793 1 121.3800518 83.010560
20791 20792 20794 1 120.0200517 532.790560
20793 20792 20794 1 121.3800518 83.010560
519 20793 4736 1 109.50000 418.400000
519 20793 4737 1 109.50000 418.400000
519 20793 20792 1 103.70004 836.800000
4736 20793 4737 1 109.50000 418.400000
4736 20793 20792 1 103.70004 836.800000
4737 20793 20792 1 103.70004 836.800000
20792 20794 20795 1 119.8800511 375.723200
20792 20794 20796 1 120.0200517 532.790560
20795 20794 20796 1 119.8800511 375.723200
20794 20796 20797 1 119.8800511 375.723200
20794 20796 20798 1 120.0200517 532.790560
20797 20796 20798 1 119.8800511 375.723200
20796 20798 20799 1 119.8800511 375.723200
20796 20798 20800 1 120.0200517 532.790560
20799 20798 20800 1 119.8800511 375.723200
20791 20800 20798 1 120.0200517 532.790560
20791 20800 20801 1 119.8800511 375.723200
20798 20800 20801 1 119.8800511 375.723200
20802 20803 20804 1 119.8800511 375.723200
20802 20803 20812 1 119.8800511 375.723200
20804 20803 20812 1 120.0200517 532.790560
20803 20804 20805 1 121.3800518 83.010560
20803 20804 20806 1 120.0200517 532.790560
20805 20804 20806 1 121.3800518 83.010560
4771 20805 4772 1 109.50000 418.400000
4771 20805 11200 1 109.50000 418.400000
4771 20805 20804 1 103.70004 836.800000
4772 20805 11200 1 109.50000 418.400000
4772 20805 20804 1 103.70004 836.800000
11200 20805 20804 1 103.70004 836.800000
20804 20806 20807 1 119.8800511 375.723200
20804 20806 20808 1 120.0200517 532.790560
20807 20806 20808 1 119.8800511 375.723200
20806 20808 20809 1 119.8800511 375.723200
20806 20808 20810 1 120.0200517 532.790560
20809 20808 20810 1 119.8800511 375.723200
20808 20810 20811 1 119.8800511 375.723200
20808 20810 20812 1 120.0200517 532.790560
20811 20810 20812 1 119.8800511 375.723200
20803 20812 20810 1 120.0200517 532.790560
20803 20812 20813 1 119.8800511 375.723200
20810 20812 20813 1 119.8800511 375.723200
20814 20815 20816 1 119.8800511 375.723200
20814 20815 20824 1 119.8800511 375.723200
20816 20815 20824 1 120.0200517 532.790560
20815 20816 20817 1 121.3800518 83.010560
20815 20816 20818 1 120.0200517 532.790560
20817 20816 20818 1 121.3800518 83.010560
2021 20817 4789 1 109.50000 418.400000
2021 20817 6116 1 109.50000 418.400000
2021 20817 20816 1 103.70004 836.800000
4789 20817 6116 1 109.50000 418.400000
4789 20817 20816 1 103.70004 836.800000
6116 20817 20816 1 103.70004 836.800000
20816 20818 20819 1 119.8800511 375.723200
20816 20818 20820 1 120.0200517 532.790560
20819 20818 20820 1 119.8800511 375.723200
20818 20820 20821 1 119.8800511 375.723200
20818 20820 20822 1 120.0200517 532.790560
20821 20820 20822 1 119.8800511 375.723200
20820 20822 20823 1 119.8800511 375.723200
20820 20822 20824 1 120.0200517 532.790560
20823 20822 20824 1 119.8800511 375.723200
20815 20824 20822 1 120.0200517 532.790560
20815 20824 20825 1 119.8800511 375.723200
20822 20824 20825 1 119.8800511 375.723200
20826 20827 20828 1 119.8800511 375.723200
20826 20827 20836 1 119.8800511 375.723200
20828 20827 20836 1 120.0200517 532.790560
20827 20828 20829 1 121.3800518 83.010560
20827 20828 20830 1 120.0200517 532.790560
20829 20828 20830 1 121.3800518 83.010560
837 20829 4795 1 109.50000 418.400000
837 20829 11201 1 109.50000 418.400000
837 20829 20828 1 103.70004 836.800000
4795 20829 11201 1 109.50000 418.400000
4795 20829 20828 1 103.70004 836.800000
11201 20829 20828 1 103.70004 836.800000
20828 20830 20831 1 119.8800511 375.723200
20828 20830 20832 1 120.0200517 532.790560
20831 20830 20832 1 119.8800511 375.723200
20830 20832 20833 1 119.8800511 375.723200
20830 20832 20834 1 120.0200517 532.790560
20833 20832 20834 1 119.8800511 375.723200
20832 20834 20835 1 119.8800511 375.723200
20832 20834 20836 1 120.0200517 532.790560
20835 20834 20836 1 119.8800511 375.723200
20827 20836 20834 1 120.0200517 532.790560
20827 20836 20837 1 119.8800511 375.723200
20834 20836 20837 1 119.8800511 375.723200
20838 20839 20840 1 119.8800511 375.723200
20838 20839 20848 1 119.8800511 375.723200
20840 20839 20848 1 120.0200517 532.790560
20839 20840 20841 1 121.3800518 83.010560
20839 20840 20842 1 120.0200517 532.790560
20841 20840 20842 1 121.3800518 83.010560
2732 20841 3337 1 109.50000 418.400000
2732 20841 4800 1 109.50000 418.400000
2732 20841 20840 1 103.70004 836.800000
3337 20841 4800 1 109.50000 418.400000
3337 20841 20840 1 103.70004 836.800000
4800 20841 20840 1 103.70004 836.800000
20840 20842 20843 1 119.8800511 375.723200
20840 20842 20844 1 120.0200517 532.790560
20843 20842 20844 1 119.8800511 375.723200
20842 20844 20845 1 119.8800511 375.723200
20842 20844 20846 1 120.0200517 532.790560
20845 20844 20846 1 119.8800511 375.723200
20844 20846 20847 1 119.8800511 375.723200
20844 20846 20848 1 120.0200517 532.790560
20847 20846 20848 1 119.8800511 375.723200
20839 20848 20846 1 120.0200517 532.790560
20839 20848 20849 1 119.8800511 375.723200
20846 20848 20849 1 119.8800511 375.723200
20850 20851 20852 1 119.8800511 375.723200
20850 20851 20860 1 119.8800511 375.723200
20852 20851 20860 1 120.0200517 532.790560
20851 20852 20853 1 121.3800518 83.010560
20851 20852 20854 1 120.0200517 532.790560
20853 20852 20854 1 121.3800518 83.010560
4807 20853 4808 1 109.50000 418.400000
4807 20853 4809 1 109.50000 418.400000
4807 20853 20852 1 103.70004 836.800000
4808 20853 4809 1 109.50000 418.400000
4808 20853 20852 1 103.70004 836.800000
4809 20853 20852 1 103.70004 836.800000
20852 20854 20855 1 119.8800511 375.723200
20852 20854 20856 1 120.0200517 532.790560
20855 20854 20856 1 119.8800511 375.723200
20854 20856 20857 1 119.8800511 375.723200
20854 20856 20858 1 120.0200517 532.790560
20857 20856 20858 1 119.8800511 375.723200
20856 20858 20859 1 119.8800511 375.723200
20856 20858 20860 1 120.0200517 532.790560
20859 20858 20860 1 119.8800511 375.723200
20851 20860 20858 1 120.0200517 532.790560
20851 20860 20861 1 119.8800511 375.723200
20858 20860 20861 1 119.8800511 375.723200
20862 20863 20864 1 119.8800511 375.723200
20862 20863 20872 1 119.8800511 375.723200
20864 20863 20872 1 120.0200517 532.790560
20863 20864 20865 1 121.3800518 83.010560
20863 20864 20866 1 120.0200517 532.790560
20865 20864 20866 1 121.3800518 83.010560
4810 20865 4812 1 109.50000 418.400000
4810 20865 8212 1 109.50000 418.400000
4810 20865 20864 1 103.70004 836.800000
4812 20865 8212 1 109.50000 418.400000
4812 20865 20864 1 103.70004 836.800000
8212 20865 20864 1 103.70004 836.800000
20864 20866 20867 1 119.8800511 375.723200
20864 20866 20868 1 120.0200517 532.790560
20867 20866 20868 1 119.8800511 375.723200
20866 20868 20869 1 119.8800511 375.723200
20866 20868 20870 1 120.0200517 532.790560
20869 20868 20870 1 119.8800511 375.723200
20868 20870 20871 1 119.8800511 375.723200
20868 20870 20872 1 120.0200517 532.790560
20871 20870 20872 1 119.8800511 375.723200
20863 20872 20870 1 120.0200517 532.790560
20863 20872 20873 1 119.8800511 375.723200
20870 20872 20873 1 119.8800511 375.723200
20874 20875 20876 1 119.8800511 375.723200
20874 20875 20884 1 119.8800511 375.723200
20876 20875 20884 1 120.0200517 532.790560
20875 20876 20877 1 121.3800518 83.010560
20875 20876 20878 1 120.0200517 532.790560
20877 20876 20878 1 121.3800518 83.010560
274 20877 4813 1 109.50000 418.400000
274 20877 4814 1 109.50000 418.400000
274 20877 20876 1 103.70004 836.800000
4813 20877 4814 1 109.50000 418.400000
4813 20877 20876 1 103.70004 836.800000
4814 20877 20876 1 103.70004 836.800000
20876 20878 20879 1 119.8800511 375.723200
20876 20878 20880 1 120.0200517 532.790560
20879 20878 20880 1 119.8800511 375.723200
20878 20880 20881 1 119.8800511 375.723200
20878 20880 20882 1 120.0200517 532.790560
20881 20880 20882 1 119.8800511 375.723200
20880 20882 20883 1 119.8800511 375.723200
20880 20882 20884 1 120.0200517 532.790560
20883 20882 20884 1 119.8800511 375.723200
20875 20884 20882 1 120.0200517 532.790560
20875 20884 20885 1 119.8800511 375.723200
20882 20884 20885 1 119.8800511 375.723200
20886 20887 20888 1 119.8800511 375.723200
20886 20887 20896 1 119.8800511 375.723200
20888 20887 20896 1 120.0200517 532.790560
20887 20888 20889 1 121.3800518 83.010560
20887 20888 20890 1 120.0200517 532.790560
20889 20888 20890 1 121.3800518 83.010560
4815 20889 4816 1 109.50000 418.400000
4815 20889 11202 1 109.50000 418.400000
4815 20889 20888 1 103.70004 836.800000
4816 20889 11202 1 109.50000 418.400000
4816 20889 20888 1 103.70004 836.800000
11202 20889 20888 1 103.70004 836.800000
20888 20890 20891 1 119.8800511 375.723200
20888 20890 20892 1 120.0200517 532.790560
20891 20890 20892 1 119.8800511 375.723200
20890 20892 20893 1 119.8800511 375.723200
20890 20892 20894 1 120.0200517 532.790560
20893 20892 20894 1 119.8800511 375.723200
20892 20894 20895 1 119.8800511 375.723200
20892 20894 20896 1 120.0200517 532.790560
20895 20894 20896 1 119.8800511 375.723200
20887 20896 20894 1 120.0200517 532.790560
20887 20896 20897 1 119.8800511 375.723200
20894 20896 20897 1 119.8800511 375.723200
20898 20899 20900 1 119.8800511 375.723200
20898 20899 20908 1 119.8800511 375.723200
20900 20899 20908 1 120.0200517 532.790560
20899 20900 20901 1 121.3800518 83.010560
20899 20900 20902 1 120.0200517 532.790560
20901 20900 20902 1 121.3800518 83.010560
4032 20901 4817 1 109.50000 418.400000
4032 20901 11203 1 109.50000 418.400000
4032 20901 20900 1 103.70004 836.800000
4817 20901 11203 1 109.50000 418.400000
4817 20901 20900 1 103.70004 836.800000
11203 20901 20900 1 103.70004 836.800000
20900 20902 20903 1 119.8800511 375.723200
20900 20902 20904 1 120.0200517 532.790560
20903 20902 20904 1 119.8800511 375.723200
20902 20904 20905 1 119.8800511 375.723200
20902 20904 20906 1 120.0200517 532.790560
20905 20904 20906 1 119.8800511 375.723200
20904 20906 20907 1 119.8800511 375.723200
20904 20906 20908 1 120.0200517 532.790560
20907 20906 20908 1 119.8800511 375.723200
20899 20908 20906 1 120.0200517 532.790560
20899 20908 20909 1 119.8800511 375.723200
20906 20908 20909 1 119.8800511 375.723200
20910 20911 20912 1 119.8800511 375.723200
20910 20911 20920 1 119.8800511 375.723200
20912 20911 20920 1 120.0200517 532.790560
20911 20912 20913 1 121.3800518 83.010560
20911 20912 20914 1 120.0200517 532.790560
20913 20912 20914 1 121.3800518 83.010560
4825 20913 4826 1 109.50000 418.400000
4825 20913 4827 1 109.50000 418.400000
4825 20913 20912 1 103.70004 836.800000
4826 20913 4827 1 109.50000 418.400000
4826 20913 20912 1 103.70004 836.800000
4827 20913 20912 1 103.70004 836.800000
20912 20914 20915 1 119.8800511 375.723200
20912 20914 20916 1 120.0200517 532.790560
20915 20914 20916 1 119.8800511 375.723200
20914 20916 20917 1 119.8800511 375.723200
20914 20916 20918 1 120.0200517 532.790560
20917 20916 20918 1 119.8800511 375.723200
20916 20918 20919 1 119.8800511 375.723200
20916 20918 20920 1 120.0200517 532.790560
20919 20918 20920 1 119.8800511 375.723200
20911 20920 20918 1 120.0200517 532.790560
20911 20920 20921 1 119.8800511 375.723200
20918 20920 20921 1 119.8800511 375.723200
20922 20923 20924 1 119.8800511 375.723200
20922 20923 20932 1 119.8800511 375.723200
20924 20923 20932 1 120.0200517 532.790560
20923 20924 20925 1 121.3800518 83.010560
20923 20924 20926 1 120.0200517 532.790560
20925 20924 20926 1 121.3800518 83.010560
2324 20925 3904 1 109.50000 418.400000
2324 20925 4792 1 109.50000 418.400000
2324 20925 20924 1 103.70004 836.800000
3904 20925 4792 1 109.50000 418.400000
3904 20925 20924 1 103.70004 836.800000
4792 20925 20924 1 103.70004 836.800000
20924 20926 20927 1 119.8800511 375.723200
20924 20926 20928 1 120.0200517 532.790560
20927 20926 20928 1 119.8800511 375.723200
20926 20928 20929 1 119.8800511 375.723200
20926 20928 20930 1 120.0200517 532.790560
20929 20928 20930 1 119.8800511 375.723200
20928 20930 20931 1 119.8800511 375.723200
20928 20930 20932 1 120.0200517 532.790560
20931 20930 20932 1 119.8800511 375.723200
20923 20932 20930 1 120.0200517 532.790560
20923 20932 20933 1 119.8800511 375.723200
20930 20932 20933 1 119.8800511 375.723200
20934 20935 20936 1 119.8800511 375.723200
20934 20935 20944 1 119.8800511 375.723200
20936 20935 20944 1 120.0200517 532.790560
20935 20936 20937 1 121.3800518 83.010560
20935 20936 20938 1 120.0200517 532.790560
20937 20936 20938 1 121.3800518 83.010560
145 20937 4849 1 109.50000 418.400000
145 20937 11204 1 109.50000 418.400000
145 20937 20936 1 103.70004 836.800000
4849 20937 11204 1 109.50000 418.400000
4849 20937 20936 1 103.70004 836.800000
11204 20937 20936 1 103.70004 836.800000
20936 20938 20939 1 119.8800511 375.723200
20936 20938 20940 1 120.0200517 532.790560
20939 20938 20940 1 119.8800511 375.723200
20938 20940 20941 1 119.8800511 375.723200
20938 20940 20942 1 120.0200517 532.790560
20941 20940 20942 1 119.8800511 375.723200
20940 20942 20943 1 119.8800511 375.723200
20940 20942 20944 1 120.0200517 532.790560
20943 20942 20944 1 119.8800511 375.723200
20935 20944 20942 1 120.0200517 532.790560
20935 20944 20945 1 119.8800511 375.723200
20942 20944 20945 1 119.8800511 375.723200
20946 20947 20948 1 119.8800511 375.723200
20946 20947 20956 1 119.8800511 375.723200
20948 20947 20956 1 120.0200517 532.790560
20947 20948 20949 1 121.3800518 83.010560
20947 20948 20950 1 120.0200517 532.790560
20949 20948 20950 1 121.3800518 83.010560
4861 20949 4862 1 109.50000 418.400000
4861 20949 11205 1 109.50000 418.400000
4861 20949 20948 1 103.70004 836.800000
4862 20949 11205 1 109.50000 418.400000
4862 20949 20948 1 103.70004 836.800000
11205 20949 20948 1 103.70004 836.800000
20948 20950 20951 1 119.8800511 375.723200
20948 20950 20952 1 120.0200517 532.790560
20951 20950 20952 1 119.8800511 375.723200
20950 20952 20953 1 119.8800511 375.723200
20950 20952 20954 1 120.0200517 532.790560
20953 20952 20954 1 119.8800511 375.723200
20952 20954 20955 1 119.8800511 375.723200
20952 20954 20956 1 120.0200517 532.790560
20955 20954 20956 1 119.8800511 375.723200
20947 20956 20954 1 120.0200517 532.790560
20947 20956 20957 1 119.8800511 375.723200
20954 20956 20957 1 119.8800511 375.723200
20958 20959 20960 1 119.8800511 375.723200
20958 20959 20968 1 119.8800511 375.723200
20960 20959 20968 1 120.0200517 532.790560
20959 20960 20961 1 121.3800518 83.010560
20959 20960 20962 1 120.0200517 532.790560
20961 20960 20962 1 121.3800518 83.010560
4870 20961 4871 1 109.50000 418.400000
4870 20961 11206 1 109.50000 418.400000
4870 20961 20960 1 103.70004 836.800000
4871 20961 11206 1 109.50000 418.400000
4871 20961 20960 1 103.70004 836.800000
11206 20961 20960 1 103.70004 836.800000
20960 20962 20963 1 119.8800511 375.723200
20960 20962 20964 1 120.0200517 532.790560
20963 20962 20964 1 119.8800511 375.723200
20962 20964 20965 1 119.8800511 375.723200
20962 20964 20966 1 120.0200517 532.790560
20965 20964 20966 1 119.8800511 375.723200
20964 20966 20967 1 119.8800511 375.723200
20964 20966 20968 1 120.0200517 532.790560
20967 20966 20968 1 119.8800511 375.723200
20959 20968 20966 1 120.0200517 532.790560
20959 20968 20969 1 119.8800511 375.723200
20966 20968 20969 1 119.8800511 375.723200
20970 20971 20972 1 119.8800511 375.723200
20970 20971 20980 1 119.8800511 375.723200
20972 20971 20980 1 120.0200517 532.790560
20971 20972 20973 1 121.3800518 83.010560
20971 20972 20974 1 120.0200517 532.790560
20973 20972 20974 1 121.3800518 83.010560
523 20973 889 1 109.50000 418.400000
523 20973 4879 1 109.50000 418.400000
523 20973 20972 1 103.70004 836.800000
889 20973 4879 1 109.50000 418.400000
889 20973 20972 1 103.70004 836.800000
4879 20973 20972 1 103.70004 836.800000
20972 20974 20975 1 119.8800511 375.723200
20972 20974 20976 1 120.0200517 532.790560
20975 20974 20976 1 119.8800511 375.723200
20974 20976 20977 1 119.8800511 375.723200
20974 20976 20978 1 120.0200517 532.790560
20977 20976 20978 1 119.8800511 375.723200
20976 20978 20979 1 119.8800511 375.723200
20976 20978 20980 1 120.0200517 532.790560
20979 20978 20980 1 119.8800511 375.723200
20971 20980 20978 1 120.0200517 532.790560
20971 20980 20981 1 119.8800511 375.723200
20978 20980 20981 1 119.8800511 375.723200
20982 20983 20984 1 119.8800511 375.723200
20982 20983 20992 1 119.8800511 375.723200
20984 20983 20992 1 120.0200517 532.790560
20983 20984 20985 1 121.3800518 83.010560
20983 20984 20986 1 120.0200517 532.790560
20985 20984 20986 1 121.3800518 83.010560
460 20985 4886 1 109.50000 418.400000
460 20985 11207 1 109.50000 418.400000
460 20985 20984 1 103.70004 836.800000
4886 20985 11207 1 109.50000 418.400000
4886 20985 20984 1 103.70004 836.800000
11207 20985 20984 1 103.70004 836.800000
20984 20986 20987 1 119.8800511 375.723200
20984 20986 20988 1 120.0200517 532.790560
20987 20986 20988 1 119.8800511 375.723200
20986 20988 20989 1 119.8800511 375.723200
20986 20988 20990 1 120.0200517 532.790560
20989 20988 20990 1 119.8800511 375.723200
20988 20990 20991 1 119.8800511 375.723200
20988 20990 20992 1 120.0200517 532.790560
20991 20990 20992 1 119.8800511 375.723200
20983 20992 20990 1 120.0200517 532.790560
20983 20992 20993 1 119.8800511 375.723200
20990 20992 20993 1 119.8800511 375.723200
20994 20995 20996 1 119.8800511 375.723200
20994 20995 21004 1 119.8800511 375.723200
20996 20995 21004 1 120.0200517 532.790560
20995 20996 20997 1 121.3800518 83.010560
20995 20996 20998 1 120.0200517 532.790560
20997 20996 20998 1 121.3800518 83.010560
2517 20997 4894 1 109.50000 418.400000
2517 20997 11208 1 109.50000 418.400000
2517 20997 20996 1 103.70004 836.800000
4894 20997 11208 1 109.50000 418.400000
4894 20997 20996 1 103.70004 836.800000
11208 20997 20996 1 103.70004 836.800000
20996 20998 20999 1 119.8800511 375.723200
20996 20998 21000 1 120.0200517 532.790560
20999 20998 21000 1 119.8800511 375.723200
20998 21000 21001 1 119.8800511 375.723200
20998 21000 21002 1 120.0200517 532.790560
21001 21000 21002 1 119.8800511 375.723200
21000 21002 21003 1 119.8800511 375.723200
21000 21002 21004 1 120.0200517 532.790560
21003 21002 21004 1 119.8800511 375.723200
20995 21004 21002 1 120.0200517 532.790560
20995 21004 21005 1 119.8800511 375.723200
21002 21004 21005 1 119.8800511 375.723200
21006 21007 21008 1 119.8800511 375.723200
21006 21007 21016 1 119.8800511 375.723200
21008 21007 21016 1 120.0200517 532.790560
21007 21008 21009 1 121.3800518 83.010560
21007 21008 21010 1 120.0200517 532.790560
21009 21008 21010 1 121.3800518 83.010560
4895 21009 4896 1 109.50000 418.400000
4895 21009 11209 1 109.50000 418.400000
4895 21009 21008 1 103.70004 836.800000
4896 21009 11209 1 109.50000 418.400000
4896 21009 21008 1 103.70004 836.800000
11209 21009 21008 1 103.70004 836.800000
21008 21010 21011 1 119.8800511 375.723200
21008 21010 21012 1 120.0200517 532.790560
21011 21010 21012 1 119.8800511 375.723200
21010 21012 21013 1 119.8800511 375.723200
21010 21012 21014 1 120.0200517 532.790560
21013 21012 21014 1 119.8800511 375.723200
21012 21014 21015 1 119.8800511 375.723200
21012 21014 21016 1 120.0200517 532.790560
21015 21014 21016 1 119.8800511 375.723200
21007 21016 21014 1 120.0200517 532.790560
21007 21016 21017 1 119.8800511 375.723200
21014 21016 21017 1 119.8800511 375.723200
21018 21019 21020 1 119.8800511 375.723200
21018 21019 21028 1 119.8800511 375.723200
21020 21019 21028 1 120.0200517 532.790560
21019 21020 21021 1 121.3800518 83.010560
21019 21020 21022 1 120.0200517 532.790560
21021 21020 21022 1 121.3800518 83.010560
4900 21021 4901 1 109.50000 418.400000
4900 21021 8815 1 109.50000 418.400000
4900 21021 21020 1 103.70004 836.800000
4901 21021 8815 1 109.50000 418.400000
4901 21021 21020 1 103.70004 836.800000
8815 21021 21020 1 103.70004 836.800000
21020 21022 21023 1 119.8800511 375.723200
21020 21022 21024 1 120.0200517 532.790560
21023 21022 21024 1 119.8800511 375.723200
21022 21024 21025 1 119.8800511 375.723200
21022 21024 21026 1 120.0200517 532.790560
21025 21024 21026 1 119.8800511 375.723200
21024 21026 21027 1 119.8800511 375.723200
21024 21026 21028 1 120.0200517 532.790560
21027 21026 21028 1 119.8800511 375.723200
21019 21028 21026 1 120.0200517 532.790560
21019 21028 21029 1 119.8800511 375.723200
21026 21028 21029 1 119.8800511 375.723200
21030 21031 21032 1 119.8800511 375.723200
21030 21031 21040 1 119.8800511 375.723200
21032 21031 21040 1 120.0200517 532.790560
21031 21032 21033 1 121.3800518 83.010560
21031 21032 21034 1 120.0200517 532.790560
21033 21032 21034 1 121.3800518 83.010560
1750 21033 4922 1 109.50000 418.400000
1750 21033 11210 1 109.50000 418.400000
1750 21033 21032 1 103.70004 836.800000
4922 21033 11210 1 109.50000 418.400000
4922 21033 21032 1 103.70004 836.800000
11210 21033 21032 1 103.70004 836.800000
21032 21034 21035 1 119.8800511 375.723200
21032 21034 21036 1 120.0200517 532.790560
21035 21034 21036 1 119.8800511 375.723200
21034 21036 21037 1 119.8800511 375.723200
21034 21036 21038 1 120.0200517 532.790560
21037 21036 21038 1 119.8800511 375.723200
21036 21038 21039 1 119.8800511 375.723200
21036 21038 21040 1 120.0200517 532.790560
21039 21038 21040 1 119.8800511 375.723200
21031 21040 21038 1 120.0200517 532.790560
21031 21040 21041 1 119.8800511 375.723200
21038 21040 21041 1 119.8800511 375.723200
21042 21043 21044 1 119.8800511 375.723200
21042 21043 21052 1 119.8800511 375.723200
21044 21043 21052 1 120.0200517 532.790560
21043 21044 21045 1 121.3800518 83.010560
21043 21044 21046 1 120.0200517 532.790560
21045 21044 21046 1 121.3800518 83.010560
2297 21045 2633 1 109.50000 418.400000
2297 21045 4932 1 109.50000 418.400000
2297 21045 21044 1 103.70004 836.800000
2633 21045 4932 1 109.50000 418.400000
2633 21045 21044 1 103.70004 836.800000
4932 21045 21044 1 103.70004 836.800000
21044 21046 21047 1 119.8800511 375.723200
21044 21046 21048 1 120.0200517 532.790560
21047 21046 21048 1 119.8800511 375.723200
21046 21048 21049 1 119.8800511 375.723200
21046 21048 21050 1 120.0200517 532.790560
21049 21048 21050 1 119.8800511 375.723200
21048 21050 21051 1 119.8800511 375.723200
21048 21050 21052 1 120.0200517 532.790560
21051 21050 21052 1 119.8800511 375.723200
21043 21052 21050 1 120.0200517 532.790560
21043 21052 21053 1 119.8800511 375.723200
21050 21052 21053 1 119.8800511 375.723200
21054 21055 21056 1 119.8800511 375.723200
21054 21055 21064 1 119.8800511 375.723200
21056 21055 21064 1 120.0200517 532.790560
21055 21056 21057 1 121.3800518 83.010560
21055 21056 21058 1 120.0200517 532.790560
21057 21056 21058 1 121.3800518 83.010560
4938 21057 4939 1 109.50000 418.400000
4938 21057 10105 1 109.50000 418.400000
4938 21057 21056 1 103.70004 836.800000
4939 21057 10105 1 109.50000 418.400000
4939 21057 21056 1 103.70004 836.800000
10105 21057 21056 1 103.70004 836.800000
21056 21058 21059 1 119.8800511 375.723200
21056 21058 21060 1 120.0200517 532.790560
21059 21058 21060 1 119.8800511 375.723200
21058 21060 21061 1 119.8800511 375.723200
21058 21060 21062 1 120.0200517 532.790560
21061 21060 21062 1 119.8800511 375.723200
21060 21062 21063 1 119.8800511 375.723200
21060 21062 21064 1 120.0200517 532.790560
21063 21062 21064 1 119.8800511 375.723200
21055 21064 21062 1 120.0200517 532.790560
21055 21064 21065 1 119.8800511 375.723200
21062 21064 21065 1 119.8800511 375.723200
21066 21067 21068 1 119.8800511 375.723200
21066 21067 21076 1 119.8800511 375.723200
21068 21067 21076 1 120.0200517 532.790560
21067 21068 21069 1 121.3800518 83.010560
21067 21068 21070 1 120.0200517 532.790560
21069 21068 21070 1 121.3800518 83.010560
4454 21069 4961 1 109.50000 418.400000
4454 21069 11211 1 109.50000 418.400000
4454 21069 21068 1 103.70004 836.800000
4961 21069 11211 1 109.50000 418.400000
4961 21069 21068 1 103.70004 836.800000
11211 21069 21068 1 103.70004 836.800000
21068 21070 21071 1 119.8800511 375.723200
21068 21070 21072 1 120.0200517 532.790560
21071 21070 21072 1 119.8800511 375.723200
21070 21072 21073 1 119.8800511 375.723200
21070 21072 21074 1 120.0200517 532.790560
21073 21072 21074 1 119.8800511 375.723200
21072 21074 21075 1 119.8800511 375.723200
21072 21074 21076 1 120.0200517 532.790560
21075 21074 21076 1 119.8800511 375.723200
21067 21076 21074 1 120.0200517 532.790560
21067 21076 21077 1 119.8800511 375.723200
21074 21076 21077 1 119.8800511 375.723200
21078 21079 21080 1 119.8800511 375.723200
21078 21079 21088 1 119.8800511 375.723200
21080 21079 21088 1 120.0200517 532.790560
21079 21080 21081 1 121.3800518 83.010560
21079 21080 21082 1 120.0200517 532.790560
21081 21080 21082 1 121.3800518 83.010560
4981 21081 4982 1 109.50000 418.400000
4981 21081 11212 1 109.50000 418.400000
4981 21081 21080 1 103.70004 836.800000
4982 21081 11212 1 109.50000 418.400000
4982 21081 21080 1 103.70004 836.800000
11212 21081 21080 1 103.70004 836.800000
21080 21082 21083 1 119.8800511 375.723200
21080 21082 21084 1 120.0200517 532.790560
21083 21082 21084 1 119.8800511 375.723200
21082 21084 21085 1 119.8800511 375.723200
21082 21084 21086 1 120.0200517 532.790560
21085 21084 21086 1 119.8800511 375.723200
21084 21086 21087 1 119.8800511 375.723200
21084 21086 21088 1 120.0200517 532.790560
21087 21086 21088 1 119.8800511 375.723200
21079 21088 21086 1 120.0200517 532.790560
21079 21088 21089 1 119.8800511 375.723200
21086 21088 21089 1 119.8800511 375.723200
21090 21091 21092 1 119.8800511 375.723200
21090 21091 21100 1 119.8800511 375.723200
21092 21091 21100 1 120.0200517 532.790560
21091 21092 21093 1 121.3800518 83.010560
21091 21092 21094 1 120.0200517 532.790560
21093 21092 21094 1 121.3800518 83.010560
3627 21093 4990 1 109.50000 418.400000
3627 21093 4991 1 109.50000 418.400000
3627 21093 21092 1 103.70004 836.800000
4990 21093 4991 1 109.50000 418.400000
4990 21093 21092 1 103.70004 836.800000
4991 21093 21092 1 103.70004 836.800000
21092 21094 21095 1 119.8800511 375.723200
21092 21094 21096 1 120.0200517 532.790560
21095 21094 21096 1 119.8800511 375.723200
21094 21096 21097 1 119.8800511 375.723200
21094 21096 21098 1 120.0200517 532.790560
21097 21096 21098 1 119.8800511 375.723200
21096 21098 21099 1 119.8800511 375.723200
21096 21098 21100 1 120.0200517 532.790560
21099 21098 21100 1 119.8800511 375.723200
21091 21100 21098 1 120.0200517 532.790560
21091 21100 21101 1 119.8800511 375.723200
21098 21100 21101 1 119.8800511 375.723200
21102 21103 21104 1 119.8800511 375.723200
21102 21103 21112 1 119.8800511 375.723200
21104 21103 21112 1 120.0200517 532.790560
21103 21104 21105 1 121.3800518 83.010560
21103 21104 21106 1 120.0200517 532.790560
21105 21104 21106 1 121.3800518 83.010560
4994 21105 4995 1 109.50000 418.400000
4994 21105 5969 1 109.50000 418.400000
4994 21105 21104 1 103.70004 836.800000
4995 21105 5969 1 109.50000 418.400000
4995 21105 21104 1 103.70004 836.800000
5969 21105 21104 1 103.70004 836.800000
21104 21106 21107 1 119.8800511 375.723200
21104 21106 21108 1 120.0200517 532.790560
21107 21106 21108 1 119.8800511 375.723200
21106 21108 21109 1 119.8800511 375.723200
21106 21108 21110 1 120.0200517 532.790560
21109 21108 21110 1 119.8800511 375.723200
21108 21110 21111 1 119.8800511 375.723200
21108 21110 21112 1 120.0200517 532.790560
21111 21110 21112 1 119.8800511 375.723200
21103 21112 21110 1 120.0200517 532.790560
21103 21112 21113 1 119.8800511 375.723200
21110 21112 21113 1 119.8800511 375.723200
21114 21115 21116 1 119.8800511 375.723200
21114 21115 21124 1 119.8800511 375.723200
21116 21115 21124 1 120.0200517 532.790560
21115 21116 21117 1 121.3800518 83.010560
21115 21116 21118 1 120.0200517 532.790560
21117 21116 21118 1 121.3800518 83.010560
4996 21117 4997 1 109.50000 418.400000
4996 21117 11213 1 109.50000 418.400000
4996 21117 21116 1 103.70004 836.800000
4997 21117 11213 1 109.50000 418.400000
4997 21117 21116 1 103.70004 836.800000
11213 21117 21116 1 103.70004 836.800000
21116 21118 21119 1 119.8800511 375.723200
21116 21118 21120 1 120.0200517 532.790560
21119 21118 21120 1 119.8800511 375.723200
21118 21120 21121 1 119.8800511 375.723200
21118 21120 21122 1 120.0200517 532.790560
21121 21120 21122 1 119.8800511 375.723200
21120 21122 21123 1 119.8800511 375.723200
21120 21122 21124 1 120.0200517 532.790560
21123 21122 21124 1 119.8800511 375.723200
21115 21124 21122 1 120.0200517 532.790560
21115 21124 21125 1 119.8800511 375.723200
21122 21124 21125 1 119.8800511 375.723200
21126 21127 21128 1 119.8800511 375.723200
21126 21127 21136 1 119.8800511 375.723200
21128 21127 21136 1 120.0200517 532.790560
21127 21128 21129 1 121.3800518 83.010560
21127 21128 21130 1 120.0200517 532.790560
21129 21128 21130 1 121.3800518 83.010560
1972 21129 5030 1 109.50000 418.400000
1972 21129 5031 1 109.50000 418.400000
1972 21129 21128 1 103.70004 836.800000
5030 21129 5031 1 109.50000 418.400000
5030 21129 21128 1 103.70004 836.800000
5031 21129 21128 1 103.70004 836.800000
21128 21130 21131 1 119.8800511 375.723200
21128 21130 21132 1 120.0200517 532.790560
21131 21130 21132 1 119.8800511 375.723200
21130 21132 21133 1 119.8800511 375.723200
21130 21132 21134 1 120.0200517 532.790560
21133 21132 21134 1 119.8800511 375.723200
21132 21134 21135 1 119.8800511 375.723200
21132 21134 21136 1 120.0200517 532.790560
21135 21134 21136 1 119.8800511 375.723200
21127 21136 21134 1 120.0200517 532.790560
21127 21136 21137 1 119.8800511 375.723200
21134 21136 21137 1 119.8800511 375.723200
21138 21139 21140 1 119.8800511 375.723200
21138 21139 21148 1 119.8800511 375.723200
21140 21139 21148 1 120.0200517 532.790560
21139 21140 21141 1 121.3800518 83.010560
21139 21140 21142 1 120.0200517 532.790560
21141 21140 21142 1 121.3800518 83.010560
2014 21141 5038 1 109.50000 418.400000
2014 21141 11214 1 109.50000 418.400000
2014 21141 21140 1 103.70004 836.800000
5038 21141 11214 1 109.50000 418.400000
5038 21141 21140 1 103.70004 836.800000
11214 21141 21140 1 103.70004 836.800000
21140 21142 21143 1 119.8800511 375.723200
21140 21142 21144 1 120.0200517 532.790560
21143 21142 21144 1 119.8800511 375.723200
21142 21144 21145 1 119.8800511 375.723200
21142 21144 21146 1 120.0200517 532.790560
21145 21144 21146 1 119.8800511 375.723200
21144 21146 21147 1 119.8800511 375.723200
21144 21146 21148 1 120.0200517 532.790560
21147 21146 21148 1 119.8800511 375.723200
21139 21148 21146 1 120.0200517 532.790560
21139 21148 21149 1 119.8800511 375.723200
21146 21148 21149 1 119.8800511 375.723200
21150 21151 21152 1 119.8800511 375.723200
21150 21151 21160 1 119.8800511 375.723200
21152 21151 21160 1 120.0200517 532.790560
21151 21152 21153 1 121.3800518 83.010560
21151 21152 21154 1 120.0200517 532.790560
21153 21152 21154 1 121.3800518 83.010560
5043 21153 5044 1 109.50000 418.400000
5043 21153 11215 1 109.50000 418.400000
5043 21153 21152 1 103.70004 836.800000
5044 21153 11215 1 109.50000 418.400000
5044 21153 21152 1 103.70004 836.800000
11215 21153 21152 1 103.70004 836.800000
21152 21154 21155 1 119.8800511 375.723200
21152 21154 21156 1 120.0200517 532.790560
21155 21154 21156 1 119.8800511 375.723200
21154 21156 21157 1 119.8800511 375.723200
21154 21156 21158 1 120.0200517 532.790560
21157 21156 21158 1 119.8800511 375.723200
21156 21158 21159 1 119.8800511 375.723200
21156 21158 21160 1 120.0200517 532.790560
21159 21158 21160 1 119.8800511 375.723200
21151 21160 21158 1 120.0200517 532.790560
21151 21160 21161 1 119.8800511 375.723200
21158 21160 21161 1 119.8800511 375.723200
21162 21163 21164 1 119.8800511 375.723200
21162 21163 21172 1 119.8800511 375.723200
21164 21163 21172 1 120.0200517 532.790560
21163 21164 21165 1 121.3800518 83.010560
21163 21164 21166 1 120.0200517 532.790560
21165 21164 21166 1 121.3800518 83.010560
654 21165 5054 1 109.50000 418.400000
654 21165 5055 1 109.50000 418.400000
654 21165 21164 1 103.70004 836.800000
5054 21165 5055 1 109.50000 418.400000
5054 21165 21164 1 103.70004 836.800000
5055 21165 21164 1 103.70004 836.800000
21164 21166 21167 1 119.8800511 375.723200
21164 21166 21168 1 120.0200517 532.790560
21167 21166 21168 1 119.8800511 375.723200
21166 21168 21169 1 119.8800511 375.723200
21166 21168 21170 1 120.0200517 532.790560
21169 21168 21170 1 119.8800511 375.723200
21168 21170 21171 1 119.8800511 375.723200
21168 21170 21172 1 120.0200517 532.790560
21171 21170 21172 1 119.8800511 375.723200
21163 21172 21170 1 120.0200517 532.790560
21163 21172 21173 1 119.8800511 375.723200
21170 21172 21173 1 119.8800511 375.723200
21174 21175 21176 1 119.8800511 375.723200
21174 21175 21184 1 119.8800511 375.723200
21176 21175 21184 1 120.0200517 532.790560
21175 21176 21177 1 121.3800518 83.010560
21175 21176 21178 1 120.0200517 532.790560
21177 21176 21178 1 121.3800518 83.010560
4709 21177 5104 1 109.50000 418.400000
4709 21177 5105 1 109.50000 418.400000
4709 21177 21176 1 103.70004 836.800000
5104 21177 5105 1 109.50000 418.400000
5104 21177 21176 1 103.70004 836.800000
5105 21177 21176 1 103.70004 836.800000
21176 21178 21179 1 119.8800511 375.723200
21176 21178 21180 1 120.0200517 532.790560
21179 21178 21180 1 119.8800511 375.723200
21178 21180 21181 1 119.8800511 375.723200
21178 21180 21182 1 120.0200517 532.790560
21181 21180 21182 1 119.8800511 375.723200
21180 21182 21183 1 119.8800511 375.723200
21180 21182 21184 1 120.0200517 532.790560
21183 21182 21184 1 119.8800511 375.723200
21175 21184 21182 1 120.0200517 532.790560
21175 21184 21185 1 119.8800511 375.723200
21182 21184 21185 1 119.8800511 375.723200
21186 21187 21188 1 119.8800511 375.723200
21186 21187 21196 1 119.8800511 375.723200
21188 21187 21196 1 120.0200517 532.790560
21187 21188 21189 1 121.3800518 83.010560
21187 21188 21190 1 120.0200517 532.790560
21189 21188 21190 1 121.3800518 83.010560
5130 21189 5131 1 109.50000 418.400000
5130 21189 5132 1 109.50000 418.400000
5130 21189 21188 1 103.70004 836.800000
5131 21189 5132 1 109.50000 418.400000
5131 21189 21188 1 103.70004 836.800000
5132 21189 21188 1 103.70004 836.800000
21188 21190 21191 1 119.8800511 375.723200
21188 21190 21192 1 120.0200517 532.790560
21191 21190 21192 1 119.8800511 375.723200
21190 21192 21193 1 119.8800511 375.723200
21190 21192 21194 1 120.0200517 532.790560
21193 21192 21194 1 119.8800511 375.723200
21192 21194 21195 1 119.8800511 375.723200
21192 21194 21196 1 120.0200517 532.790560
21195 21194 21196 1 119.8800511 375.723200
21187 21196 21194 1 120.0200517 532.790560
21187 21196 21197 1 119.8800511 375.723200
21194 21196 21197 1 119.8800511 375.723200
21198 21199 21200 1 119.8800511 375.723200
21198 21199 21208 1 119.8800511 375.723200
21200 21199 21208 1 120.0200517 532.790560
21199 21200 21201 1 121.3800518 83.010560
21199 21200 21202 1 120.0200517 532.790560
21201 21200 21202 1 121.3800518 83.010560
5135 21201 5136 1 109.50000 418.400000
5135 21201 9621 1 109.50000 418.400000
5135 21201 21200 1 103.70004 836.800000
5136 21201 9621 1 109.50000 418.400000
5136 21201 21200 1 103.70004 836.800000
9621 21201 21200 1 103.70004 836.800000
21200 21202 21203 1 119.8800511 375.723200
21200 21202 21204 1 120.0200517 532.790560
21203 21202 21204 1 119.8800511 375.723200
21202 21204 21205 1 119.8800511 375.723200
21202 21204 21206 1 120.0200517 532.790560
21205 21204 21206 1 119.8800511 375.723200
21204 21206 21207 1 119.8800511 375.723200
21204 21206 21208 1 120.0200517 532.790560
21207 21206 21208 1 119.8800511 375.723200
21199 21208 21206 1 120.0200517 532.790560
21199 21208 21209 1 119.8800511 375.723200
21206 21208 21209 1 119.8800511 375.723200
21210 21211 21212 1 119.8800511 375.723200
21210 21211 21220 1 119.8800511 375.723200
21212 21211 21220 1 120.0200517 532.790560
21211 21212 21213 1 121.3800518 83.010560
21211 21212 21214 1 120.0200517 532.790560
21213 21212 21214 1 121.3800518 83.010560
5141 21213 5142 1 109.50000 418.400000
5141 21213 5143 1 109.50000 418.400000
5141 21213 21212 1 103.70004 836.800000
5142 21213 5143 1 109.50000 418.400000
5142 21213 21212 1 103.70004 836.800000
5143 21213 21212 1 103.70004 836.800000
21212 21214 21215 1 119.8800511 375.723200
21212 21214 21216 1 120.0200517 532.790560
21215 21214 21216 1 119.8800511 375.723200
21214 21216 21217 1 119.8800511 375.723200
21214 21216 21218 1 120.0200517 532.790560
21217 21216 21218 1 119.8800511 375.723200
21216 21218 21219 1 119.8800511 375.723200
21216 21218 21220 1 120.0200517 532.790560
21219 21218 21220 1 119.8800511 375.723200
21211 21220 21218 1 120.0200517 532.790560
21211 21220 21221 1 119.8800511 375.723200
21218 21220 21221 1 119.8800511 375.723200
21222 21223 21224 1 119.8800511 375.723200
21222 21223 21232 1 119.8800511 375.723200
21224 21223 21232 1 120.0200517 532.790560
21223 21224 21225 1 121.3800518 83.010560
21223 21224 21226 1 120.0200517 532.790560
21225 21224 21226 1 121.3800518 83.010560
1864 21225 1987 1 109.50000 418.400000
1864 21225 11216 1 109.50000 418.400000
1864 21225 21224 1 103.70004 836.800000
1987 21225 11216 1 109.50000 418.400000
1987 21225 21224 1 103.70004 836.800000
11216 21225 21224 1 103.70004 836.800000
21224 21226 21227 1 119.8800511 375.723200
21224 21226 21228 1 120.0200517 532.790560
21227 21226 21228 1 119.8800511 375.723200
21226 21228 21229 1 119.8800511 375.723200
21226 21228 21230 1 120.0200517 532.790560
21229 21228 21230 1 119.8800511 375.723200
21228 21230 21231 1 119.8800511 375.723200
21228 21230 21232 1 120.0200517 532.790560
21231 21230 21232 1 119.8800511 375.723200
21223 21232 21230 1 120.0200517 532.790560
21223 21232 21233 1 119.8800511 375.723200
21230 21232 21233 1 119.8800511 375.723200
21234 21235 21236 1 119.8800511 375.723200
21234 21235 21244 1 119.8800511 375.723200
21236 21235 21244 1 120.0200517 532.790560
21235 21236 21237 1 121.3800518 83.010560
21235 21236 21238 1 120.0200517 532.790560
21237 21236 21238 1 121.3800518 83.010560
3686 21237 5163 1 109.50000 418.400000
3686 21237 5164 1 109.50000 418.400000
3686 21237 21236 1 103.70004 836.800000
5163 21237 5164 1 109.50000 418.400000
5163 21237 21236 1 103.70004 836.800000
5164 21237 21236 1 103.70004 836.800000
21236 21238 21239 1 119.8800511 375.723200
21236 21238 21240 1 120.0200517 532.790560
21239 21238 21240 1 119.8800511 375.723200
21238 21240 21241 1 119.8800511 375.723200
21238 21240 21242 1 120.0200517 532.790560
21241 21240 21242 1 119.8800511 375.723200
21240 21242 21243 1 119.8800511 375.723200
21240 21242 21244 1 120.0200517 532.790560
21243 21242 21244 1 119.8800511 375.723200
21235 21244 21242 1 120.0200517 532.790560
21235 21244 21245 1 119.8800511 375.723200
21242 21244 21245 1 119.8800511 375.723200
21246 21247 21248 1 119.8800511 375.723200
21246 21247 21256 1 119.8800511 375.723200
21248 21247 21256 1 120.0200517 532.790560
21247 21248 21249 1 121.3800518 83.010560
21247 21248 21250 1 120.0200517 532.790560
21249 21248 21250 1 121.3800518 83.010560
2443 21249 5172 1 109.50000 418.400000
2443 21249 11217 1 109.50000 418.400000
2443 21249 21248 1 103.70004 836.800000
5172 21249 11217 1 109.50000 418.400000
5172 21249 21248 1 103.70004 836.800000
11217 21249 21248 1 103.70004 836.800000
21248 21250 21251 1 119.8800511 375.723200
21248 21250 21252 1 120.0200517 532.790560
21251 21250 21252 1 119.8800511 375.723200
21250 21252 21253 1 119.8800511 375.723200
21250 21252 21254 1 120.0200517 532.790560
21253 21252 21254 1 119.8800511 375.723200
21252 21254 21255 1 119.8800511 375.723200
21252 21254 21256 1 120.0200517 532.790560
21255 21254 21256 1 119.8800511 375.723200
21247 21256 21254 1 120.0200517 532.790560
21247 21256 21257 1 119.8800511 375.723200
21254 21256 21257 1 119.8800511 375.723200
21258 21259 21260 1 119.8800511 375.723200
21258 21259 21268 1 119.8800511 375.723200
21260 21259 21268 1 120.0200517 532.790560
21259 21260 21261 1 121.3800518 83.010560
21259 21260 21262 1 120.0200517 532.790560
21261 21260 21262 1 121.3800518 83.010560
5173 21261 5174 1 109.50000 418.400000
5173 21261 11218 1 109.50000 418.400000
5173 21261 21260 1 103.70004 836.800000
5174 21261 11218 1 109.50000 418.400000
5174 21261 21260 1 103.70004 836.800000
11218 21261 21260 1 103.70004 836.800000
21260 21262 21263 1 119.8800511 375.723200
21260 21262 21264 1 120.0200517 532.790560
21263 21262 21264 1 119.8800511 375.723200
21262 21264 21265 1 119.8800511 375.723200
21262 21264 21266 1 120.0200517 532.790560
21265 21264 21266 1 119.8800511 375.723200
21264 21266 21267 1 119.8800511 375.723200
21264 21266 21268 1 120.0200517 532.790560
21267 21266 21268 1 119.8800511 375.723200
21259 21268 21266 1 120.0200517 532.790560
21259 21268 21269 1 119.8800511 375.723200
21266 21268 21269 1 119.8800511 375.723200
21270 21271 21272 1 119.8800511 375.723200
21270 21271 21280 1 119.8800511 375.723200
21272 21271 21280 1 120.0200517 532.790560
21271 21272 21273 1 121.3800518 83.010560
21271 21272 21274 1 120.0200517 532.790560
21273 21272 21274 1 121.3800518 83.010560
3751 21273 5188 1 109.50000 418.400000
3751 21273 5189 1 109.50000 418.400000
3751 21273 21272 1 103.70004 836.800000
5188 21273 5189 1 109.50000 418.400000
5188 21273 21272 1 103.70004 836.800000
5189 21273 21272 1 103.70004 836.800000
21272 21274 21275 1 119.8800511 375.723200
21272 21274 21276 1 120.0200517 532.790560
21275 21274 21276 1 119.8800511 375.723200
21274 21276 21277 1 119.8800511 375.723200
21274 21276 21278 1 120.0200517 532.790560
21277 21276 21278 1 119.8800511 375.723200
21276 21278 21279 1 119.8800511 375.723200
21276 21278 21280 1 120.0200517 532.790560
21279 21278 21280 1 119.8800511 375.723200
21271 21280 21278 1 120.0200517 532.790560
21271 21280 21281 1 119.8800511 375.723200
21278 21280 21281 1 119.8800511 375.723200
21282 21283 21284 1 119.8800511 375.723200
21282 21283 21292 1 119.8800511 375.723200
21284 21283 21292 1 120.0200517 532.790560
21283 21284 21285 1 121.3800518 83.010560
21283 21284 21286 1 120.0200517 532.790560
21285 21284 21286 1 121.3800518 83.010560
1643 21285 5134 1 109.50000 418.400000
1643 21285 5221 1 109.50000 418.400000
1643 21285 21284 1 103.70004 836.800000
5134 21285 5221 1 109.50000 418.400000
5134 21285 21284 1 103.70004 836.800000
5221 21285 21284 1 103.70004 836.800000
21284 21286 21287 1 119.8800511 375.723200
21284 21286 21288 1 120.0200517 532.790560
21287 21286 21288 1 119.8800511 375.723200
21286 21288 21289 1 119.8800511 375.723200
21286 21288 21290 1 120.0200517 532.790560
21289 21288 21290 1 119.8800511 375.723200
21288 21290 21291 1 119.8800511 375.723200
21288 21290 21292 1 120.0200517 532.790560
21291 21290 21292 1 119.8800511 375.723200
21283 21292 21290 1 120.0200517 532.790560
21283 21292 21293 1 119.8800511 375.723200
21290 21292 21293 1 119.8800511 375.723200
21294 21295 21296 1 119.8800511 375.723200
21294 21295 21304 1 119.8800511 375.723200
21296 21295 21304 1 120.0200517 532.790560
21295 21296 21297 1 121.3800518 83.010560
21295 21296 21298 1 120.0200517 532.790560
21297 21296 21298 1 121.3800518 83.010560
1288 21297 5234 1 109.50000 418.400000
1288 21297 5235 1 109.50000 418.400000
1288 21297 21296 1 103.70004 836.800000
5234 21297 5235 1 109.50000 418.400000
5234 21297 21296 1 103.70004 836.800000
5235 21297 21296 1 103.70004 836.800000
21296 21298 21299 1 119.8800511 375.723200
21296 21298 21300 1 120.0200517 532.790560
21299 21298 21300 1 119.8800511 375.723200
21298 21300 21301 1 119.8800511 375.723200
21298 21300 21302 1 120.0200517 532.790560
21301 21300 21302 1 119.8800511 375.723200
21300 21302 21303 1 119.8800511 375.723200
21300 21302 21304 1 120.0200517 532.790560
21303 21302 21304 1 119.8800511 375.723200
21295 21304 21302 1 120.0200517 532.790560
21295 21304 21305 1 119.8800511 375.723200
21302 21304 21305 1 119.8800511 375.723200
21306 21307 21308 1 119.8800511 375.723200
21306 21307 21316 1 119.8800511 375.723200
21308 21307 21316 1 120.0200517 532.790560
21307 21308 21309 1 121.3800518 83.010560
21307 21308 21310 1 120.0200517 532.790560
21309 21308 21310 1 121.3800518 83.010560
3625 21309 5256 1 109.50000 418.400000
3625 21309 5257 1 109.50000 418.400000
3625 21309 21308 1 103.70004 836.800000
5256 21309 5257 1 109.50000 418.400000
5256 21309 21308 1 103.70004 836.800000
5257 21309 21308 1 103.70004 836.800000
21308 21310 21311 1 119.8800511 375.723200
21308 21310 21312 1 120.0200517 532.790560
21311 21310 21312 1 119.8800511 375.723200
21310 21312 21313 1 119.8800511 375.723200
21310 21312 21314 1 120.0200517 532.790560
21313 21312 21314 1 119.8800511 375.723200
21312 21314 21315 1 119.8800511 375.723200
21312 21314 21316 1 120.0200517 532.790560
21315 21314 21316 1 119.8800511 375.723200
21307 21316 21314 1 120.0200517 532.790560
21307 21316 21317 1 119.8800511 375.723200
21314 21316 21317 1 119.8800511 375.723200
21318 21319 21320 1 119.8800511 375.723200
21318 21319 21328 1 119.8800511 375.723200
21320 21319 21328 1 120.0200517 532.790560
21319 21320 21321 1 121.3800518 83.010560
21319 21320 21322 1 120.0200517 532.790560
21321 21320 21322 1 121.3800518 83.010560
356 21321 5260 1 109.50000 418.400000
356 21321 5261 1 109.50000 418.400000
356 21321 21320 1 103.70004 836.800000
5260 21321 5261 1 109.50000 418.400000
5260 21321 21320 1 103.70004 836.800000
5261 21321 21320 1 103.70004 836.800000
21320 21322 21323 1 119.8800511 375.723200
21320 21322 21324 1 120.0200517 532.790560
21323 21322 21324 1 119.8800511 375.723200
21322 21324 21325 1 119.8800511 375.723200
21322 21324 21326 1 120.0200517 532.790560
21325 21324 21326 1 119.8800511 375.723200
21324 21326 21327 1 119.8800511 375.723200
21324 21326 21328 1 120.0200517 532.790560
21327 21326 21328 1 119.8800511 375.723200
21319 21328 21326 1 120.0200517 532.790560
21319 21328 21329 1 119.8800511 375.723200
21326 21328 21329 1 119.8800511 375.723200
21330 21331 21332 1 119.8800511 375.723200
21330 21331 21340 1 119.8800511 375.723200
21332 21331 21340 1 120.0200517 532.790560
21331 21332 21333 1 121.3800518 83.010560
21331 21332 21334 1 120.0200517 532.790560
21333 21332 21334 1 121.3800518 83.010560
5171 21333 5287 1 109.50000 418.400000
5171 21333 5288 1 109.50000 418.400000
5171 21333 21332 1 103.70004 836.800000
5287 21333 5288 1 109.50000 418.400000
5287 21333 21332 1 103.70004 836.800000
5288 21333 21332 1 103.70004 836.800000
21332 21334 21335 1 119.8800511 375.723200
21332 21334 21336 1 120.0200517 532.790560
21335 21334 21336 1 119.8800511 375.723200
21334 21336 21337 1 119.8800511 375.723200
21334 21336 21338 1 120.0200517 532.790560
21337 21336 21338 1 119.8800511 375.723200
21336 21338 21339 1 119.8800511 375.723200
21336 21338 21340 1 120.0200517 532.790560
21339 21338 21340 1 119.8800511 375.723200
21331 21340 21338 1 120.0200517 532.790560
21331 21340 21341 1 119.8800511 375.723200
21338 21340 21341 1 119.8800511 375.723200
21342 21343 21344 1 119.8800511 375.723200
21342 21343 21352 1 119.8800511 375.723200
21344 21343 21352 1 120.0200517 532.790560
21343 21344 21345 1 121.3800518 83.010560
21343 21344 21346 1 120.0200517 532.790560
21345 21344 21346 1 121.3800518 83.010560
5298 21345 5299 1 109.50000 418.400000
5298 21345 11219 1 109.50000 418.400000
5298 21345 21344 1 103.70004 836.800000
5299 21345 11219 1 109.50000 418.400000
5299 21345 21344 1 103.70004 836.800000
11219 21345 21344 1 103.70004 836.800000
21344 21346 21347 1 119.8800511 375.723200
21344 21346 21348 1 120.0200517 532.790560
21347 21346 21348 1 119.8800511 375.723200
21346 21348 21349 1 119.8800511 375.723200
21346 21348 21350 1 120.0200517 532.790560
21349 21348 21350 1 119.8800511 375.723200
21348 21350 21351 1 119.8800511 375.723200
21348 21350 21352 1 120.0200517 532.790560
21351 21350 21352 1 119.8800511 375.723200
21343 21352 21350 1 120.0200517 532.790560
21343 21352 21353 1 119.8800511 375.723200
21350 21352 21353 1 119.8800511 375.723200
21354 21355 21356 1 119.8800511 375.723200
21354 21355 21364 1 119.8800511 375.723200
21356 21355 21364 1 120.0200517 532.790560
21355 21356 21357 1 121.3800518 83.010560
21355 21356 21358 1 120.0200517 532.790560
21357 21356 21358 1 121.3800518 83.010560
5324 21357 5325 1 109.50000 418.400000
5324 21357 11220 1 109.50000 418.400000
5324 21357 21356 1 103.70004 836.800000
5325 21357 11220 1 109.50000 418.400000
5325 21357 21356 1 103.70004 836.800000
11220 21357 21356 1 103.70004 836.800000
21356 21358 21359 1 119.8800511 375.723200
21356 21358 21360 1 120.0200517 532.790560
21359 21358 21360 1 119.8800511 375.723200
21358 21360 21361 1 119.8800511 375.723200
21358 21360 21362 1 120.0200517 532.790560
21361 21360 21362 1 119.8800511 375.723200
21360 21362 21363 1 119.8800511 375.723200
21360 21362 21364 1 120.0200517 532.790560
21363 21362 21364 1 119.8800511 375.723200
21355 21364 21362 1 120.0200517 532.790560
21355 21364 21365 1 119.8800511 375.723200
21362 21364 21365 1 119.8800511 375.723200
21366 21367 21368 1 119.8800511 375.723200
21366 21367 21376 1 119.8800511 375.723200
21368 21367 21376 1 120.0200517 532.790560
21367 21368 21369 1 121.3800518 83.010560
21367 21368 21370 1 120.0200517 532.790560
21369 21368 21370 1 121.3800518 83.010560
5019 21369 5344 1 109.50000 418.400000
5019 21369 11221 1 109.50000 418.400000
5019 21369 21368 1 103.70004 836.800000
5344 21369 11221 1 109.50000 418.400000
5344 21369 21368 1 103.70004 836.800000
11221 21369 21368 1 103.70004 836.800000
21368 21370 21371 1 119.8800511 375.723200
21368 21370 21372 1 120.0200517 532.790560
21371 21370 21372 1 119.8800511 375.723200
21370 21372 21373 1 119.8800511 375.723200
21370 21372 21374 1 120.0200517 532.790560
21373 21372 21374 1 119.8800511 375.723200
21372 21374 21375 1 119.8800511 375.723200
21372 21374 21376 1 120.0200517 532.790560
21375 21374 21376 1 119.8800511 375.723200
21367 21376 21374 1 120.0200517 532.790560
21367 21376 21377 1 119.8800511 375.723200
21374 21376 21377 1 119.8800511 375.723200
21378 21379 21380 1 119.8800511 375.723200
21378 21379 21388 1 119.8800511 375.723200
21380 21379 21388 1 120.0200517 532.790560
21379 21380 21381 1 121.3800518 83.010560
21379 21380 21382 1 120.0200517 532.790560
21381 21380 21382 1 121.3800518 83.010560
940 21381 5352 1 109.50000 418.400000
940 21381 11222 1 109.50000 418.400000
940 21381 21380 1 103.70004 836.800000
5352 21381 11222 1 109.50000 418.400000
5352 21381 21380 1 103.70004 836.800000
11222 21381 21380 1 103.70004 836.800000
21380 21382 21383 1 119.8800511 375.723200
21380 21382 21384 1 120.0200517 532.790560
21383 21382 21384 1 119.8800511 375.723200
21382 21384 21385 1 119.8800511 375.723200
21382 21384 21386 1 120.0200517 532.790560
21385 21384 21386 1 119.8800511 375.723200
21384 21386 21387 1 119.8800511 375.723200
21384 21386 21388 1 120.0200517 532.790560
21387 21386 21388 1 119.8800511 375.723200
21379 21388 21386 1 120.0200517 532.790560
21379 21388 21389 1 119.8800511 375.723200
21386 21388 21389 1 119.8800511 375.723200
21390 21391 21392 1 119.8800511 375.723200
21390 21391 21400 1 119.8800511 375.723200
21392 21391 21400 1 120.0200517 532.790560
21391 21392 21393 1 121.3800518 83.010560
21391 21392 21394 1 120.0200517 532.790560
21393 21392 21394 1 121.3800518 83.010560
3034 21393 4956 1 109.50000 418.400000
3034 21393 5353 1 109.50000 418.400000
3034 21393 21392 1 103.70004 836.800000
4956 21393 5353 1 109.50000 418.400000
4956 21393 21392 1 103.70004 836.800000
5353 21393 21392 1 103.70004 836.800000
21392 21394 21395 1 119.8800511 375.723200
21392 21394 21396 1 120.0200517 532.790560
21395 21394 21396 1 119.8800511 375.723200
21394 21396 21397 1 119.8800511 375.723200
21394 21396 21398 1 120.0200517 532.790560
21397 21396 21398 1 119.8800511 375.723200
21396 21398 21399 1 119.8800511 375.723200
21396 21398 21400 1 120.0200517 532.790560
21399 21398 21400 1 119.8800511 375.723200
21391 21400 21398 1 120.0200517 532.790560
21391 21400 21401 1 119.8800511 375.723200
21398 21400 21401 1 119.8800511 375.723200
21402 21403 21404 1 119.8800511 375.723200
21402 21403 21412 1 119.8800511 375.723200
21404 21403 21412 1 120.0200517 532.790560
21403 21404 21405 1 121.3800518 83.010560
21403 21404 21406 1 120.0200517 532.790560
21405 21404 21406 1 121.3800518 83.010560
1526 21405 5356 1 109.50000 418.400000
1526 21405 11223 1 109.50000 418.400000
1526 21405 21404 1 103.70004 836.800000
5356 21405 11223 1 109.50000 418.400000
5356 21405 21404 1 103.70004 836.800000
11223 21405 21404 1 103.70004 836.800000
21404 21406 21407 1 119.8800511 375.723200
21404 21406 21408 1 120.0200517 532.790560
21407 21406 21408 1 119.8800511 375.723200
21406 21408 21409 1 119.8800511 375.723200
21406 21408 21410 1 120.0200517 532.790560
21409 21408 21410 1 119.8800511 375.723200
21408 21410 21411 1 119.8800511 375.723200
21408 21410 21412 1 120.0200517 532.790560
21411 21410 21412 1 119.8800511 375.723200
21403 21412 21410 1 120.0200517 532.790560
21403 21412 21413 1 119.8800511 375.723200
21410 21412 21413 1 119.8800511 375.723200
21414 21415 21416 1 119.8800511 375.723200
21414 21415 21424 1 119.8800511 375.723200
21416 21415 21424 1 120.0200517 532.790560
21415 21416 21417 1 121.3800518 83.010560
21415 21416 21418 1 120.0200517 532.790560
21417 21416 21418 1 121.3800518 83.010560
5373 21417 5374 1 109.50000 418.400000
5373 21417 11224 1 109.50000 418.400000
5373 21417 21416 1 103.70004 836.800000
5374 21417 11224 1 109.50000 418.400000
5374 21417 21416 1 103.70004 836.800000
11224 21417 21416 1 103.70004 836.800000
21416 21418 21419 1 119.8800511 375.723200
21416 21418 21420 1 120.0200517 532.790560
21419 21418 21420 1 119.8800511 375.723200
21418 21420 21421 1 119.8800511 375.723200
21418 21420 21422 1 120.0200517 532.790560
21421 21420 21422 1 119.8800511 375.723200
21420 21422 21423 1 119.8800511 375.723200
21420 21422 21424 1 120.0200517 532.790560
21423 21422 21424 1 119.8800511 375.723200
21415 21424 21422 1 120.0200517 532.790560
21415 21424 21425 1 119.8800511 375.723200
21422 21424 21425 1 119.8800511 375.723200
21426 21427 21428 1 119.8800511 375.723200
21426 21427 21436 1 119.8800511 375.723200
21428 21427 21436 1 120.0200517 532.790560
21427 21428 21429 1 121.3800518 83.010560
21427 21428 21430 1 120.0200517 532.790560
21429 21428 21430 1 121.3800518 83.010560
3301 21429 5391 1 109.50000 418.400000
3301 21429 5392 1 109.50000 418.400000
3301 21429 21428 1 103.70004 836.800000
5391 21429 5392 1 109.50000 418.400000
5391 21429 21428 1 103.70004 836.800000
5392 21429 21428 1 103.70004 836.800000
21428 21430 21431 1 119.8800511 375.723200
21428 21430 21432 1 120.0200517 532.790560
21431 21430 21432 1 119.8800511 375.723200
21430 21432 21433 1 119.8800511 375.723200
21430 21432 21434 1 120.0200517 532.790560
21433 21432 21434 1 119.8800511 375.723200
21432 21434 21435 1 119.8800511 375.723200
21432 21434 21436 1 120.0200517 532.790560
21435 21434 21436 1 119.8800511 375.723200
21427 21436 21434 1 120.0200517 532.790560
21427 21436 21437 1 119.8800511 375.723200
21434 21436 21437 1 119.8800511 375.723200
21438 21439 21440 1 119.8800511 375.723200
21438 21439 21448 1 119.8800511 375.723200
21440 21439 21448 1 120.0200517 532.790560
21439 21440 21441 1 121.3800518 83.010560
21439 21440 21442 1 120.0200517 532.790560
21441 21440 21442 1 121.3800518 83.010560
5393 21441 5394 1 109.50000 418.400000
5393 21441 11225 1 109.50000 418.400000
5393 21441 21440 1 103.70004 836.800000
5394 21441 11225 1 109.50000 418.400000
5394 21441 21440 1 103.70004 836.800000
11225 21441 21440 1 103.70004 836.800000
21440 21442 21443 1 119.8800511 375.723200
21440 21442 21444 1 120.0200517 532.790560
21443 21442 21444 1 119.8800511 375.723200
21442 21444 21445 1 119.8800511 375.723200
21442 21444 21446 1 120.0200517 532.790560
21445 21444 21446 1 119.8800511 375.723200
21444 21446 21447 1 119.8800511 375.723200
21444 21446 21448 1 120.0200517 532.790560
21447 21446 21448 1 119.8800511 375.723200
21439 21448 21446 1 120.0200517 532.790560
21439 21448 21449 1 119.8800511 375.723200
21446 21448 21449 1 119.8800511 375.723200
21450 21451 21452 1 119.8800511 375.723200
21450 21451 21460 1 119.8800511 375.723200
21452 21451 21460 1 120.0200517 532.790560
21451 21452 21453 1 121.3800518 83.010560
21451 21452 21454 1 120.0200517 532.790560
21453 21452 21454 1 121.3800518 83.010560
2234 21453 5413 1 109.50000 418.400000
2234 21453 5414 1 109.50000 418.400000
2234 21453 21452 1 103.70004 836.800000
5413 21453 5414 1 109.50000 418.400000
5413 21453 21452 1 103.70004 836.800000
5414 21453 21452 1 103.70004 836.800000
21452 21454 21455 1 119.8800511 375.723200
21452 21454 21456 1 120.0200517 532.790560
21455 21454 21456 1 119.8800511 375.723200
21454 21456 21457 1 119.8800511 375.723200
21454 21456 21458 1 120.0200517 532.790560
21457 21456 21458 1 119.8800511 375.723200
21456 21458 21459 1 119.8800511 375.723200
21456 21458 21460 1 120.0200517 532.790560
21459 21458 21460 1 119.8800511 375.723200
21451 21460 21458 1 120.0200517 532.790560
21451 21460 21461 1 119.8800511 375.723200
21458 21460 21461 1 119.8800511 375.723200
21462 21463 21464 1 119.8800511 375.723200
21462 21463 21472 1 119.8800511 375.723200
21464 21463 21472 1 120.0200517 532.790560
21463 21464 21465 1 121.3800518 83.010560
21463 21464 21466 1 120.0200517 532.790560
21465 21464 21466 1 121.3800518 83.010560
5415 21465 5416 1 109.50000 418.400000
5415 21465 10084 1 109.50000 418.400000
5415 21465 21464 1 103.70004 836.800000
5416 21465 10084 1 109.50000 418.400000
5416 21465 21464 1 103.70004 836.800000
10084 21465 21464 1 103.70004 836.800000
21464 21466 21467 1 119.8800511 375.723200
21464 21466 21468 1 120.0200517 532.790560
21467 21466 21468 1 119.8800511 375.723200
21466 21468 21469 1 119.8800511 375.723200
21466 21468 21470 1 120.0200517 532.790560
21469 21468 21470 1 119.8800511 375.723200
21468 21470 21471 1 119.8800511 375.723200
21468 21470 21472 1 120.0200517 532.790560
21471 21470 21472 1 119.8800511 375.723200
21463 21472 21470 1 120.0200517 532.790560
21463 21472 21473 1 119.8800511 375.723200
21470 21472 21473 1 119.8800511 375.723200
21474 21475 21476 1 119.8800511 375.723200
21474 21475 21484 1 119.8800511 375.723200
21476 21475 21484 1 120.0200517 532.790560
21475 21476 21477 1 121.3800518 83.010560
21475 21476 21478 1 120.0200517 532.790560
21477 21476 21478 1 121.3800518 83.010560
1414 21477 4971 1 109.50000 418.400000
1414 21477 11226 1 109.50000 418.400000
1414 21477 21476 1 103.70004 836.800000
4971 21477 11226 1 109.50000 418.400000
4971 21477 21476 1 103.70004 836.800000
11226 21477 21476 1 103.70004 836.800000
21476 21478 21479 1 119.8800511 375.723200
21476 21478 21480 1 120.0200517 532.790560
21479 21478 21480 1 119.8800511 375.723200
21478 21480 21481 1 119.8800511 375.723200
21478 21480 21482 1 120.0200517 532.790560
21481 21480 21482 1 119.8800511 375.723200
21480 21482 21483 1 119.8800511 375.723200
21480 21482 21484 1 120.0200517 532.790560
21483 21482 21484 1 119.8800511 375.723200
21475 21484 21482 1 120.0200517 532.790560
21475 21484 21485 1 119.8800511 375.723200
21482 21484 21485 1 119.8800511 375.723200
21486 21487 21488 1 119.8800511 375.723200
21486 21487 21496 1 119.8800511 375.723200
21488 21487 21496 1 120.0200517 532.790560
21487 21488 21489 1 121.3800518 83.010560
21487 21488 21490 1 120.0200517 532.790560
21489 21488 21490 1 121.3800518 83.010560
4427 21489 5427 1 109.50000 418.400000
4427 21489 5428 1 109.50000 418.400000
4427 21489 21488 1 103.70004 836.800000
5427 21489 5428 1 109.50000 418.400000
5427 21489 21488 1 103.70004 836.800000
5428 21489 21488 1 103.70004 836.800000
21488 21490 21491 1 119.8800511 375.723200
21488 21490 21492 1 120.0200517 532.790560
21491 21490 21492 1 119.8800511 375.723200
21490 21492 21493 1 119.8800511 375.723200
21490 21492 21494 1 120.0200517 532.790560
21493 21492 21494 1 119.8800511 375.723200
21492 21494 21495 1 119.8800511 375.723200
21492 21494 21496 1 120.0200517 532.790560
21495 21494 21496 1 119.8800511 375.723200
21487 21496 21494 1 120.0200517 532.790560
21487 21496 21497 1 119.8800511 375.723200
21494 21496 21497 1 119.8800511 375.723200
21498 21499 21500 1 119.8800511 375.723200
21498 21499 21508 1 119.8800511 375.723200
21500 21499 21508 1 120.0200517 532.790560
21499 21500 21501 1 121.3800518 83.010560
21499 21500 21502 1 120.0200517 532.790560
21501 21500 21502 1 121.3800518 83.010560
5467 21501 5468 1 109.50000 418.400000
5467 21501 5469 1 109.50000 418.400000
5467 21501 21500 1 103.70004 836.800000
5468 21501 5469 1 109.50000 418.400000
5468 21501 21500 1 103.70004 836.800000
5469 21501 21500 1 103.70004 836.800000
21500 21502 21503 1 119.8800511 375.723200
21500 21502 21504 1 120.0200517 532.790560
21503 21502 21504 1 119.8800511 375.723200
21502 21504 21505 1 119.8800511 375.723200
21502 21504 21506 1 120.0200517 532.790560
21505 21504 21506 1 119.8800511 375.723200
21504 21506 21507 1 119.8800511 375.723200
21504 21506 21508 1 120.0200517 532.790560
21507 21506 21508 1 119.8800511 375.723200
21499 21508 21506 1 120.0200517 532.790560
21499 21508 21509 1 119.8800511 375.723200
21506 21508 21509 1 119.8800511 375.723200
21510 21511 21512 1 119.8800511 375.723200
21510 21511 21520 1 119.8800511 375.723200
21512 21511 21520 1 120.0200517 532.790560
21511 21512 21513 1 121.3800518 83.010560
21511 21512 21514 1 120.0200517 532.790560
21513 21512 21514 1 121.3800518 83.010560
4589 21513 5472 1 109.50000 418.400000
4589 21513 5473 1 109.50000 418.400000
4589 21513 21512 1 103.70004 836.800000
5472 21513 5473 1 109.50000 418.400000
5472 21513 21512 1 103.70004 836.800000
5473 21513 21512 1 103.70004 836.800000
21512 21514 21515 1 119.8800511 375.723200
21512 21514 21516 1 120.0200517 532.790560
21515 21514 21516 1 119.8800511 375.723200
21514 21516 21517 1 119.8800511 375.723200
21514 21516 21518 1 120.0200517 532.790560
21517 21516 21518 1 119.8800511 375.723200
21516 21518 21519 1 119.8800511 375.723200
21516 21518 21520 1 120.0200517 532.790560
21519 21518 21520 1 119.8800511 375.723200
21511 21520 21518 1 120.0200517 532.790560
21511 21520 21521 1 119.8800511 375.723200
21518 21520 21521 1 119.8800511 375.723200
21522 21523 21524 1 119.8800511 375.723200
21522 21523 21532 1 119.8800511 375.723200
21524 21523 21532 1 120.0200517 532.790560
21523 21524 21525 1 121.3800518 83.010560
21523 21524 21526 1 120.0200517 532.790560
21525 21524 21526 1 121.3800518 83.010560
5496 21525 5497 1 109.50000 418.400000
5496 21525 5498 1 109.50000 418.400000
5496 21525 21524 1 103.70004 836.800000
5497 21525 5498 1 109.50000 418.400000
5497 21525 21524 1 103.70004 836.800000
5498 21525 21524 1 103.70004 836.800000
21524 21526 21527 1 119.8800511 375.723200
21524 21526 21528 1 120.0200517 532.790560
21527 21526 21528 1 119.8800511 375.723200
21526 21528 21529 1 119.8800511 375.723200
21526 21528 21530 1 120.0200517 532.790560
21529 21528 21530 1 119.8800511 375.723200
21528 21530 21531 1 119.8800511 375.723200
21528 21530 21532 1 120.0200517 532.790560
21531 21530 21532 1 119.8800511 375.723200
21523 21532 21530 1 120.0200517 532.790560
21523 21532 21533 1 119.8800511 375.723200
21530 21532 21533 1 119.8800511 375.723200
21534 21535 21536 1 119.8800511 375.723200
21534 21535 21544 1 119.8800511 375.723200
21536 21535 21544 1 120.0200517 532.790560
21535 21536 21537 1 121.3800518 83.010560
21535 21536 21538 1 120.0200517 532.790560
21537 21536 21538 1 121.3800518 83.010560
5501 21537 5502 1 109.50000 418.400000
5501 21537 5503 1 109.50000 418.400000
5501 21537 21536 1 103.70004 836.800000
5502 21537 5503 1 109.50000 418.400000
5502 21537 21536 1 103.70004 836.800000
5503 21537 21536 1 103.70004 836.800000
21536 21538 21539 1 119.8800511 375.723200
21536 21538 21540 1 120.0200517 532.790560
21539 21538 21540 1 119.8800511 375.723200
21538 21540 21541 1 119.8800511 375.723200
21538 21540 21542 1 120.0200517 532.790560
21541 21540 21542 1 119.8800511 375.723200
21540 21542 21543 1 119.8800511 375.723200
21540 21542 21544 1 120.0200517 532.790560
21543 21542 21544 1 119.8800511 375.723200
21535 21544 21542 1 120.0200517 532.790560
21535 21544 21545 1 119.8800511 375.723200
21542 21544 21545 1 119.8800511 375.723200
21546 21547 21548 1 119.8800511 375.723200
21546 21547 21556 1 119.8800511 375.723200
21548 21547 21556 1 120.0200517 532.790560
21547 21548 21549 1 121.3800518 83.010560
21547 21548 21550 1 120.0200517 532.790560
21549 21548 21550 1 121.3800518 83.010560
1387 21549 3539 1 109.50000 418.400000
1387 21549 5516 1 109.50000 418.400000
1387 21549 21548 1 103.70004 836.800000
3539 21549 5516 1 109.50000 418.400000
3539 21549 21548 1 103.70004 836.800000
5516 21549 21548 1 103.70004 836.800000
21548 21550 21551 1 119.8800511 375.723200
21548 21550 21552 1 120.0200517 532.790560
21551 21550 21552 1 119.8800511 375.723200
21550 21552 21553 1 119.8800511 375.723200
21550 21552 21554 1 120.0200517 532.790560
21553 21552 21554 1 119.8800511 375.723200
21552 21554 21555 1 119.8800511 375.723200
21552 21554 21556 1 120.0200517 532.790560
21555 21554 21556 1 119.8800511 375.723200
21547 21556 21554 1 120.0200517 532.790560
21547 21556 21557 1 119.8800511 375.723200
21554 21556 21557 1 119.8800511 375.723200
21558 21559 21560 1 119.8800511 375.723200
21558 21559 21568 1 119.8800511 375.723200
21560 21559 21568 1 120.0200517 532.790560
21559 21560 21561 1 121.3800518 83.010560
21559 21560 21562 1 120.0200517 532.790560
21561 21560 21562 1 121.3800518 83.010560
5172 21561 5526 1 109.50000 418.400000
5172 21561 5527 1 109.50000 418.400000
5172 21561 21560 1 103.70004 836.800000
5526 21561 5527 1 109.50000 418.400000
5526 21561 21560 1 103.70004 836.800000
5527 21561 21560 1 103.70004 836.800000
21560 21562 21563 1 119.8800511 375.723200
21560 21562 21564 1 120.0200517 532.790560
21563 21562 21564 1 119.8800511 375.723200
21562 21564 21565 1 119.8800511 375.723200
21562 21564 21566 1 120.0200517 532.790560
21565 21564 21566 1 119.8800511 375.723200
21564 21566 21567 1 119.8800511 375.723200
21564 21566 21568 1 120.0200517 532.790560
21567 21566 21568 1 119.8800511 375.723200
21559 21568 21566 1 120.0200517 532.790560
21559 21568 21569 1 119.8800511 375.723200
21566 21568 21569 1 119.8800511 375.723200
21570 21571 21572 1 119.8800511 375.723200
21570 21571 21580 1 119.8800511 375.723200
21572 21571 21580 1 120.0200517 532.790560
21571 21572 21573 1 121.3800518 83.010560
21571 21572 21574 1 120.0200517 532.790560
21573 21572 21574 1 121.3800518 83.010560
5540 21573 5541 1 109.50000 418.400000
5540 21573 11147 1 109.50000 418.400000
5540 21573 21572 1 103.70004 836.800000
5541 21573 11147 1 109.50000 418.400000
5541 21573 21572 1 103.70004 836.800000
11147 21573 21572 1 103.70004 836.800000
21572 21574 21575 1 119.8800511 375.723200
21572 21574 21576 1 120.0200517 532.790560
21575 21574 21576 1 119.8800511 375.723200
21574 21576 21577 1 119.8800511 375.723200
21574 21576 21578 1 120.0200517 532.790560
21577 21576 21578 1 119.8800511 375.723200
21576 21578 21579 1 119.8800511 375.723200
21576 21578 21580 1 120.0200517 532.790560
21579 21578 21580 1 119.8800511 375.723200
21571 21580 21578 1 120.0200517 532.790560
21571 21580 21581 1 119.8800511 375.723200
21578 21580 21581 1 119.8800511 375.723200
21582 21583 21584 1 119.8800511 375.723200
21582 21583 21592 1 119.8800511 375.723200
21584 21583 21592 1 120.0200517 532.790560
21583 21584 21585 1 121.3800518 83.010560
21583 21584 21586 1 120.0200517 532.790560
21585 21584 21586 1 121.3800518 83.010560
742 21585 5551 1 109.50000 418.400000
742 21585 5552 1 109.50000 418.400000
742 21585 21584 1 103.70004 836.800000
5551 21585 5552 1 109.50000 418.400000
5551 21585 21584 1 103.70004 836.800000
5552 21585 21584 1 103.70004 836.800000
21584 21586 21587 1 119.8800511 375.723200
21584 21586 21588 1 120.0200517 532.790560
21587 21586 21588 1 119.8800511 375.723200
21586 21588 21589 1 119.8800511 375.723200
21586 21588 21590 1 120.0200517 532.790560
21589 21588 21590 1 119.8800511 375.723200
21588 21590 21591 1 119.8800511 375.723200
21588 21590 21592 1 120.0200517 532.790560
21591 21590 21592 1 119.8800511 375.723200
21583 21592 21590 1 120.0200517 532.790560
21583 21592 21593 1 119.8800511 375.723200
21590 21592 21593 1 119.8800511 375.723200
21594 21595 21596 1 119.8800511 375.723200
21594 21595 21604 1 119.8800511 375.723200
21596 21595 21604 1 120.0200517 532.790560
21595 21596 21597 1 121.3800518 83.010560
21595 21596 21598 1 120.0200517 532.790560
21597 21596 21598 1 121.3800518 83.010560
1329 21597 1330 1 109.50000 418.400000
1329 21597 2716 1 109.50000 418.400000
1329 21597 21596 1 103.70004 836.800000
1330 21597 2716 1 109.50000 418.400000
1330 21597 21596 1 103.70004 836.800000
2716 21597 21596 1 103.70004 836.800000
21596 21598 21599 1 119.8800511 375.723200
21596 21598 21600 1 120.0200517 532.790560
21599 21598 21600 1 119.8800511 375.723200
21598 21600 21601 1 119.8800511 375.723200
21598 21600 21602 1 120.0200517 532.790560
21601 21600 21602 1 119.8800511 375.723200
21600 21602 21603 1 119.8800511 375.723200
21600 21602 21604 1 120.0200517 532.790560
21603 21602 21604 1 119.8800511 375.723200
21595 21604 21602 1 120.0200517 532.790560
21595 21604 21605 1 119.8800511 375.723200
21602 21604 21605 1 119.8800511 375.723200
21606 21607 21608 1 119.8800511 375.723200
21606 21607 21616 1 119.8800511 375.723200
21608 21607 21616 1 120.0200517 532.790560
21607 21608 21609 1 121.3800518 83.010560
21607 21608 21610 1 120.0200517 532.790560
21609 21608 21610 1 121.3800518 83.010560
3847 21609 5572 1 109.50000 418.400000
3847 21609 5573 1 109.50000 418.400000
3847 21609 21608 1 103.70004 836.800000
5572 21609 5573 1 109.50000 418.400000
5572 21609 21608 1 103.70004 836.800000
5573 21609 21608 1 103.70004 836.800000
21608 21610 21611 1 119.8800511 375.723200
21608 21610 21612 1 120.0200517 532.790560
21611 21610 21612 1 119.8800511 375.723200
21610 21612 21613 1 119.8800511 375.723200
21610 21612 21614 1 120.0200517 532.790560
21613 21612 21614 1 119.8800511 375.723200
21612 21614 21615 1 119.8800511 375.723200
21612 21614 21616 1 120.0200517 532.790560
21615 21614 21616 1 119.8800511 375.723200
21607 21616 21614 1 120.0200517 532.790560
21607 21616 21617 1 119.8800511 375.723200
21614 21616 21617 1 119.8800511 375.723200
21618 21619 21620 1 119.8800511 375.723200
21618 21619 21628 1 119.8800511 375.723200
21620 21619 21628 1 120.0200517 532.790560
21619 21620 21621 1 121.3800518 83.010560
21619 21620 21622 1 120.0200517 532.790560
21621 21620 21622 1 121.3800518 83.010560
5506 21621 5579 1 109.50000 418.400000
5506 21621 5581 1 109.50000 418.400000
5506 21621 21620 1 103.70004 836.800000
5579 21621 5581 1 109.50000 418.400000
5579 21621 21620 1 103.70004 836.800000
5581 21621 21620 1 103.70004 836.800000
21620 21622 21623 1 119.8800511 375.723200
21620 21622 21624 1 120.0200517 532.790560
21623 21622 21624 1 119.8800511 375.723200
21622 21624 21625 1 119.8800511 375.723200
21622 21624 21626 1 120.0200517 532.790560
21625 21624 21626 1 119.8800511 375.723200
21624 21626 21627 1 119.8800511 375.723200
21624 21626 21628 1 120.0200517 532.790560
21627 21626 21628 1 119.8800511 375.723200
21619 21628 21626 1 120.0200517 532.790560
21619 21628 21629 1 119.8800511 375.723200
21626 21628 21629 1 119.8800511 375.723200
21630 21631 21632 1 119.8800511 375.723200
21630 21631 21640 1 119.8800511 375.723200
21632 21631 21640 1 120.0200517 532.790560
21631 21632 21633 1 121.3800518 83.010560
21631 21632 21634 1 120.0200517 532.790560
21633 21632 21634 1 121.3800518 83.010560
4184 21633 5630 1 109.50000 418.400000
4184 21633 7614 1 109.50000 418.400000
4184 21633 21632 1 103.70004 836.800000
5630 21633 7614 1 109.50000 418.400000
5630 21633 21632 1 103.70004 836.800000
7614 21633 21632 1 103.70004 836.800000
21632 21634 21635 1 119.8800511 375.723200
21632 21634 21636 1 120.0200517 532.790560
21635 21634 21636 1 119.8800511 375.723200
21634 21636 21637 1 119.8800511 375.723200
21634 21636 21638 1 120.0200517 532.790560
21637 21636 21638 1 119.8800511 375.723200
21636 21638 21639 1 119.8800511 375.723200
21636 21638 21640 1 120.0200517 532.790560
21639 21638 21640 1 119.8800511 375.723200
21631 21640 21638 1 120.0200517 532.790560
21631 21640 21641 1 119.8800511 375.723200
21638 21640 21641 1 119.8800511 375.723200
21642 21643 21644 1 119.8800511 375.723200
21642 21643 21652 1 119.8800511 375.723200
21644 21643 21652 1 120.0200517 532.790560
21643 21644 21645 1 121.3800518 83.010560
21643 21644 21646 1 120.0200517 532.790560
21645 21644 21646 1 121.3800518 83.010560
1703 21645 5713 1 109.50000 418.400000
1703 21645 5714 1 109.50000 418.400000
1703 21645 21644 1 103.70004 836.800000
5713 21645 5714 1 109.50000 418.400000
5713 21645 21644 1 103.70004 836.800000
5714 21645 21644 1 103.70004 836.800000
21644 21646 21647 1 119.8800511 375.723200
21644 21646 21648 1 120.0200517 532.790560
21647 21646 21648 1 119.8800511 375.723200
21646 21648 21649 1 119.8800511 375.723200
21646 21648 21650 1 120.0200517 532.790560
21649 21648 21650 1 119.8800511 375.723200
21648 21650 21651 1 119.8800511 375.723200
21648 21650 21652 1 120.0200517 532.790560
21651 21650 21652 1 119.8800511 375.723200
21643 21652 21650 1 120.0200517 532.790560
21643 21652 21653 1 119.8800511 375.723200
21650 21652 21653 1 119.8800511 375.723200
21654 21655 21656 1 119.8800511 375.723200
21654 21655 21664 1 119.8800511 375.723200
21656 21655 21664 1 120.0200517 532.790560
21655 21656 21657 1 121.3800518 83.010560
21655 21656 21658 1 120.0200517 532.790560
21657 21656 21658 1 121.3800518 83.010560
5715 21657 5716 1 109.50000 418.400000
5715 21657 5717 1 109.50000 418.400000
5715 21657 21656 1 103.70004 836.800000
5716 21657 5717 1 109.50000 418.400000
5716 21657 21656 1 103.70004 836.800000
5717 21657 21656 1 103.70004 836.800000
21656 21658 21659 1 119.8800511 375.723200
21656 21658 21660 1 120.0200517 532.790560
21659 21658 21660 1 119.8800511 375.723200
21658 21660 21661 1 119.8800511 375.723200
21658 21660 21662 1 120.0200517 532.790560
21661 21660 21662 1 119.8800511 375.723200
21660 21662 21663 1 119.8800511 375.723200
21660 21662 21664 1 120.0200517 532.790560
21663 21662 21664 1 119.8800511 375.723200
21655 21664 21662 1 120.0200517 532.790560
21655 21664 21665 1 119.8800511 375.723200
21662 21664 21665 1 119.8800511 375.723200
21666 21667 21668 1 119.8800511 375.723200
21666 21667 21676 1 119.8800511 375.723200
21668 21667 21676 1 120.0200517 532.790560
21667 21668 21669 1 121.3800518 83.010560
21667 21668 21670 1 120.0200517 532.790560
21669 21668 21670 1 121.3800518 83.010560
5725 21669 5726 1 109.50000 418.400000
5725 21669 5727 1 109.50000 418.400000
5725 21669 21668 1 103.70004 836.800000
5726 21669 5727 1 109.50000 418.400000
5726 21669 21668 1 103.70004 836.800000
5727 21669 21668 1 103.70004 836.800000
21668 21670 21671 1 119.8800511 375.723200
21668 21670 21672 1 120.0200517 532.790560
21671 21670 21672 1 119.8800511 375.723200
21670 21672 21673 1 119.8800511 375.723200
21670 21672 21674 1 120.0200517 532.790560
21673 21672 21674 1 119.8800511 375.723200
21672 21674 21675 1 119.8800511 375.723200
21672 21674 21676 1 120.0200517 532.790560
21675 21674 21676 1 119.8800511 375.723200
21667 21676 21674 1 120.0200517 532.790560
21667 21676 21677 1 119.8800511 375.723200
21674 21676 21677 1 119.8800511 375.723200
21678 21679 21680 1 119.8800511 375.723200
21678 21679 21688 1 119.8800511 375.723200
21680 21679 21688 1 120.0200517 532.790560
21679 21680 21681 1 121.3800518 83.010560
21679 21680 21682 1 120.0200517 532.790560
21681 21680 21682 1 121.3800518 83.010560
5105 21681 5751 1 109.50000 418.400000
5105 21681 5752 1 109.50000 418.400000
5105 21681 21680 1 103.70004 836.800000
5751 21681 5752 1 109.50000 418.400000
5751 21681 21680 1 103.70004 836.800000
5752 21681 21680 1 103.70004 836.800000
21680 21682 21683 1 119.8800511 375.723200
21680 21682 21684 1 120.0200517 532.790560
21683 21682 21684 1 119.8800511 375.723200
21682 21684 21685 1 119.8800511 375.723200
21682 21684 21686 1 120.0200517 532.790560
21685 21684 21686 1 119.8800511 375.723200
21684 21686 21687 1 119.8800511 375.723200
21684 21686 21688 1 120.0200517 532.790560
21687 21686 21688 1 119.8800511 375.723200
21679 21688 21686 1 120.0200517 532.790560
21679 21688 21689 1 119.8800511 375.723200
21686 21688 21689 1 119.8800511 375.723200
21690 21691 21692 1 119.8800511 375.723200
21690 21691 21700 1 119.8800511 375.723200
21692 21691 21700 1 120.0200517 532.790560
21691 21692 21693 1 121.3800518 83.010560
21691 21692 21694 1 120.0200517 532.790560
21693 21692 21694 1 121.3800518 83.010560
5774 21693 5775 1 109.50000 418.400000
5774 21693 5776 1 109.50000 418.400000
5774 21693 21692 1 103.70004 836.800000
5775 21693 5776 1 109.50000 418.400000
5775 21693 21692 1 103.70004 836.800000
5776 21693 21692 1 103.70004 836.800000
21692 21694 21695 1 119.8800511 375.723200
21692 21694 21696 1 120.0200517 532.790560
21695 21694 21696 1 119.8800511 375.723200
21694 21696 21697 1 119.8800511 375.723200
21694 21696 21698 1 120.0200517 532.790560
21697 21696 21698 1 119.8800511 375.723200
21696 21698 21699 1 119.8800511 375.723200
21696 21698 21700 1 120.0200517 532.790560
21699 21698 21700 1 119.8800511 375.723200
21691 21700 21698 1 120.0200517 532.790560
21691 21700 21701 1 119.8800511 375.723200
21698 21700 21701 1 119.8800511 375.723200
21702 21703 21704 1 119.8800511 375.723200
21702 21703 21712 1 119.8800511 375.723200
21704 21703 21712 1 120.0200517 532.790560
21703 21704 21705 1 121.3800518 83.010560
21703 21704 21706 1 120.0200517 532.790560
21705 21704 21706 1 121.3800518 83.010560
980 21705 4224 1 109.50000 418.400000
980 21705 5829 1 109.50000 418.400000
980 21705 21704 1 103.70004 836.800000
4224 21705 5829 1 109.50000 418.400000
4224 21705 21704 1 103.70004 836.800000
5829 21705 21704 1 103.70004 836.800000
21704 21706 21707 1 119.8800511 375.723200
21704 21706 21708 1 120.0200517 532.790560
21707 21706 21708 1 119.8800511 375.723200
21706 21708 21709 1 119.8800511 375.723200
21706 21708 21710 1 120.0200517 532.790560
21709 21708 21710 1 119.8800511 375.723200
21708 21710 21711 1 119.8800511 375.723200
21708 21710 21712 1 120.0200517 532.790560
21711 21710 21712 1 119.8800511 375.723200
21703 21712 21710 1 120.0200517 532.790560
21703 21712 21713 1 119.8800511 375.723200
21710 21712 21713 1 119.8800511 375.723200
21714 21715 21716 1 119.8800511 375.723200
21714 21715 21724 1 119.8800511 375.723200
21716 21715 21724 1 120.0200517 532.790560
21715 21716 21717 1 121.3800518 83.010560
21715 21716 21718 1 120.0200517 532.790560
21717 21716 21718 1 121.3800518 83.010560
5832 21717 5833 1 109.50000 418.400000
5832 21717 5834 1 109.50000 418.400000
5832 21717 21716 1 103.70004 836.800000
5833 21717 5834 1 109.50000 418.400000
5833 21717 21716 1 103.70004 836.800000
5834 21717 21716 1 103.70004 836.800000
21716 21718 21719 1 119.8800511 375.723200
21716 21718 21720 1 120.0200517 532.790560
21719 21718 21720 1 119.8800511 375.723200
21718 21720 21721 1 119.8800511 375.723200
21718 21720 21722 1 120.0200517 532.790560
21721 21720 21722 1 119.8800511 375.723200
21720 21722 21723 1 119.8800511 375.723200
21720 21722 21724 1 120.0200517 532.790560
21723 21722 21724 1 119.8800511 375.723200
21715 21724 21722 1 120.0200517 532.790560
21715 21724 21725 1 119.8800511 375.723200
21722 21724 21725 1 119.8800511 375.723200
21726 21727 21728 1 119.8800511 375.723200
21726 21727 21736 1 119.8800511 375.723200
21728 21727 21736 1 120.0200517 532.790560
21727 21728 21729 1 121.3800518 83.010560
21727 21728 21730 1 120.0200517 532.790560
21729 21728 21730 1 121.3800518 83.010560
864 21729 2451 1 109.50000 418.400000
864 21729 5839 1 109.50000 418.400000
864 21729 21728 1 103.70004 836.800000
2451 21729 5839 1 109.50000 418.400000
2451 21729 21728 1 103.70004 836.800000
5839 21729 21728 1 103.70004 836.800000
21728 21730 21731 1 119.8800511 375.723200
21728 21730 21732 1 120.0200517 532.790560
21731 21730 21732 1 119.8800511 375.723200
21730 21732 21733 1 119.8800511 375.723200
21730 21732 21734 1 120.0200517 532.790560
21733 21732 21734 1 119.8800511 375.723200
21732 21734 21735 1 119.8800511 375.723200
21732 21734 21736 1 120.0200517 532.790560
21735 21734 21736 1 119.8800511 375.723200
21727 21736 21734 1 120.0200517 532.790560
21727 21736 21737 1 119.8800511 375.723200
21734 21736 21737 1 119.8800511 375.723200
21738 21739 21740 1 119.8800511 375.723200
21738 21739 21748 1 119.8800511 375.723200
21740 21739 21748 1 120.0200517 532.790560
21739 21740 21741 1 121.3800518 83.010560
21739 21740 21742 1 120.0200517 532.790560
21741 21740 21742 1 121.3800518 83.010560
3628 21741 5860 1 109.50000 418.400000
3628 21741 10356 1 109.50000 418.400000
3628 21741 21740 1 103.70004 836.800000
5860 21741 10356 1 109.50000 418.400000
5860 21741 21740 1 103.70004 836.800000
10356 21741 21740 1 103.70004 836.800000
21740 21742 21743 1 119.8800511 375.723200
21740 21742 21744 1 120.0200517 532.790560
21743 21742 21744 1 119.8800511 375.723200
21742 21744 21745 1 119.8800511 375.723200
21742 21744 21746 1 120.0200517 532.790560
21745 21744 21746 1 119.8800511 375.723200
21744 21746 21747 1 119.8800511 375.723200
21744 21746 21748 1 120.0200517 532.790560
21747 21746 21748 1 119.8800511 375.723200
21739 21748 21746 1 120.0200517 532.790560
21739 21748 21749 1 119.8800511 375.723200
21746 21748 21749 1 119.8800511 375.723200
21750 21751 21752 1 119.8800511 375.723200
21750 21751 21760 1 119.8800511 375.723200
21752 21751 21760 1 120.0200517 532.790560
21751 21752 21753 1 121.3800518 83.010560
21751 21752 21754 1 120.0200517 532.790560
21753 21752 21754 1 121.3800518 83.010560
5892 21753 5893 1 109.50000 418.400000
5892 21753 5894 1 109.50000 418.400000
5892 21753 21752 1 103.70004 836.800000
5893 21753 5894 1 109.50000 418.400000
5893 21753 21752 1 103.70004 836.800000
5894 21753 21752 1 103.70004 836.800000
21752 21754 21755 1 119.8800511 375.723200
21752 21754 21756 1 120.0200517 532.790560
21755 21754 21756 1 119.8800511 375.723200
21754 21756 21757 1 119.8800511 375.723200
21754 21756 21758 1 120.0200517 532.790560
21757 21756 21758 1 119.8800511 375.723200
21756 21758 21759 1 119.8800511 375.723200
21756 21758 21760 1 120.0200517 532.790560
21759 21758 21760 1 119.8800511 375.723200
21751 21760 21758 1 120.0200517 532.790560
21751 21760 21761 1 119.8800511 375.723200
21758 21760 21761 1 119.8800511 375.723200
21762 21763 21764 1 119.8800511 375.723200
21762 21763 21772 1 119.8800511 375.723200
21764 21763 21772 1 120.0200517 532.790560
21763 21764 21765 1 121.3800518 83.010560
21763 21764 21766 1 120.0200517 532.790560
21765 21764 21766 1 121.3800518 83.010560
2420 21765 5964 1 109.50000 418.400000
2420 21765 5965 1 109.50000 418.400000
2420 21765 21764 1 103.70004 836.800000
5964 21765 5965 1 109.50000 418.400000
5964 21765 21764 1 103.70004 836.800000
5965 21765 21764 1 103.70004 836.800000
21764 21766 21767 1 119.8800511 375.723200
21764 21766 21768 1 120.0200517 532.790560
21767 21766 21768 1 119.8800511 375.723200
21766 21768 21769 1 119.8800511 375.723200
21766 21768 21770 1 120.0200517 532.790560
21769 21768 21770 1 119.8800511 375.723200
21768 21770 21771 1 119.8800511 375.723200
21768 21770 21772 1 120.0200517 532.790560
21771 21770 21772 1 119.8800511 375.723200
21763 21772 21770 1 120.0200517 532.790560
21763 21772 21773 1 119.8800511 375.723200
21770 21772 21773 1 119.8800511 375.723200
21774 21775 21776 1 119.8800511 375.723200
21774 21775 21784 1 119.8800511 375.723200
21776 21775 21784 1 120.0200517 532.790560
21775 21776 21777 1 121.3800518 83.010560
21775 21776 21778 1 120.0200517 532.790560
21777 21776 21778 1 121.3800518 83.010560
3358 21777 5974 1 109.50000 418.400000
3358 21777 5975 1 109.50000 418.400000
3358 21777 21776 1 103.70004 836.800000
5974 21777 5975 1 109.50000 418.400000
5974 21777 21776 1 103.70004 836.800000
5975 21777 21776 1 103.70004 836.800000
21776 21778 21779 1 119.8800511 375.723200
21776 21778 21780 1 120.0200517 532.790560
21779 21778 21780 1 119.8800511 375.723200
21778 21780 21781 1 119.8800511 375.723200
21778 21780 21782 1 120.0200517 532.790560
21781 21780 21782 1 119.8800511 375.723200
21780 21782 21783 1 119.8800511 375.723200
21780 21782 21784 1 120.0200517 532.790560
21783 21782 21784 1 119.8800511 375.723200
21775 21784 21782 1 120.0200517 532.790560
21775 21784 21785 1 119.8800511 375.723200
21782 21784 21785 1 119.8800511 375.723200
21786 21787 21788 1 119.8800511 375.723200
21786 21787 21796 1 119.8800511 375.723200
21788 21787 21796 1 120.0200517 532.790560
21787 21788 21789 1 121.3800518 83.010560
21787 21788 21790 1 120.0200517 532.790560
21789 21788 21790 1 121.3800518 83.010560
1154 21789 5979 1 109.50000 418.400000
1154 21789 5980 1 109.50000 418.400000
1154 21789 21788 1 103.70004 836.800000
5979 21789 5980 1 109.50000 418.400000
5979 21789 21788 1 103.70004 836.800000
5980 21789 21788 1 103.70004 836.800000
21788 21790 21791 1 119.8800511 375.723200
21788 21790 21792 1 120.0200517 532.790560
21791 21790 21792 1 119.8800511 375.723200
21790 21792 21793 1 119.8800511 375.723200
21790 21792 21794 1 120.0200517 532.790560
21793 21792 21794 1 119.8800511 375.723200
21792 21794 21795 1 119.8800511 375.723200
21792 21794 21796 1 120.0200517 532.790560
21795 21794 21796 1 119.8800511 375.723200
21787 21796 21794 1 120.0200517 532.790560
21787 21796 21797 1 119.8800511 375.723200
21794 21796 21797 1 119.8800511 375.723200
21798 21799 21800 1 119.8800511 375.723200
21798 21799 21808 1 119.8800511 375.723200
21800 21799 21808 1 120.0200517 532.790560
21799 21800 21801 1 121.3800518 83.010560
21799 21800 21802 1 120.0200517 532.790560
21801 21800 21802 1 121.3800518 83.010560
3604 21801 5991 1 109.50000 418.400000
3604 21801 5992 1 109.50000 418.400000
3604 21801 21800 1 103.70004 836.800000
5991 21801 5992 1 109.50000 418.400000
5991 21801 21800 1 103.70004 836.800000
5992 21801 21800 1 103.70004 836.800000
21800 21802 21803 1 119.8800511 375.723200
21800 21802 21804 1 120.0200517 532.790560
21803 21802 21804 1 119.8800511 375.723200
21802 21804 21805 1 119.8800511 375.723200
21802 21804 21806 1 120.0200517 532.790560
21805 21804 21806 1 119.8800511 375.723200
21804 21806 21807 1 119.8800511 375.723200
21804 21806 21808 1 120.0200517 532.790560
21807 21806 21808 1 119.8800511 375.723200
21799 21808 21806 1 120.0200517 532.790560
21799 21808 21809 1 119.8800511 375.723200
21806 21808 21809 1 119.8800511 375.723200
21810 21811 21812 1 119.8800511 375.723200
21810 21811 21820 1 119.8800511 375.723200
21812 21811 21820 1 120.0200517 532.790560
21811 21812 21813 1 121.3800518 83.010560
21811 21812 21814 1 120.0200517 532.790560
21813 21812 21814 1 121.3800518 83.010560
3603 21813 5997 1 109.50000 418.400000
3603 21813 5998 1 109.50000 418.400000
3603 21813 21812 1 103.70004 836.800000
5997 21813 5998 1 109.50000 418.400000
5997 21813 21812 1 103.70004 836.800000
5998 21813 21812 1 103.70004 836.800000
21812 21814 21815 1 119.8800511 375.723200
21812 21814 21816 1 120.0200517 532.790560
21815 21814 21816 1 119.8800511 375.723200
21814 21816 21817 1 119.8800511 375.723200
21814 21816 21818 1 120.0200517 532.790560
21817 21816 21818 1 119.8800511 375.723200
21816 21818 21819 1 119.8800511 375.723200
21816 21818 21820 1 120.0200517 532.790560
21819 21818 21820 1 119.8800511 375.723200
21811 21820 21818 1 120.0200517 532.790560
21811 21820 21821 1 119.8800511 375.723200
21818 21820 21821 1 119.8800511 375.723200
21822 21823 21824 1 119.8800511 375.723200
21822 21823 21832 1 119.8800511 375.723200
21824 21823 21832 1 120.0200517 532.790560
21823 21824 21825 1 121.3800518 83.010560
21823 21824 21826 1 120.0200517 532.790560
21825 21824 21826 1 121.3800518 83.010560
5527 21825 6000 1 109.50000 418.400000
5527 21825 6001 1 109.50000 418.400000
5527 21825 21824 1 103.70004 836.800000
6000 21825 6001 1 109.50000 418.400000
6000 21825 21824 1 103.70004 836.800000
6001 21825 21824 1 103.70004 836.800000
21824 21826 21827 1 119.8800511 375.723200
21824 21826 21828 1 120.0200517 532.790560
21827 21826 21828 1 119.8800511 375.723200
21826 21828 21829 1 119.8800511 375.723200
21826 21828 21830 1 120.0200517 532.790560
21829 21828 21830 1 119.8800511 375.723200
21828 21830 21831 1 119.8800511 375.723200
21828 21830 21832 1 120.0200517 532.790560
21831 21830 21832 1 119.8800511 375.723200
21823 21832 21830 1 120.0200517 532.790560
21823 21832 21833 1 119.8800511 375.723200
21830 21832 21833 1 119.8800511 375.723200
21834 21835 21836 1 119.8800511 375.723200
21834 21835 21844 1 119.8800511 375.723200
21836 21835 21844 1 120.0200517 532.790560
21835 21836 21837 1 121.3800518 83.010560
21835 21836 21838 1 120.0200517 532.790560
21837 21836 21838 1 121.3800518 83.010560
1685 21837 6005 1 109.50000 418.400000
1685 21837 6006 1 109.50000 418.400000
1685 21837 21836 1 103.70004 836.800000
6005 21837 6006 1 109.50000 418.400000
6005 21837 21836 1 103.70004 836.800000
6006 21837 21836 1 103.70004 836.800000
21836 21838 21839 1 119.8800511 375.723200
21836 21838 21840 1 120.0200517 532.790560
21839 21838 21840 1 119.8800511 375.723200
21838 21840 21841 1 119.8800511 375.723200
21838 21840 21842 1 120.0200517 532.790560
21841 21840 21842 1 119.8800511 375.723200
21840 21842 21843 1 119.8800511 375.723200
21840 21842 21844 1 120.0200517 532.790560
21843 21842 21844 1 119.8800511 375.723200
21835 21844 21842 1 120.0200517 532.790560
21835 21844 21845 1 119.8800511 375.723200
21842 21844 21845 1 119.8800511 375.723200
21846 21847 21848 1 119.8800511 375.723200
21846 21847 21856 1 119.8800511 375.723200
21848 21847 21856 1 120.0200517 532.790560
21847 21848 21849 1 121.3800518 83.010560
21847 21848 21850 1 120.0200517 532.790560
21849 21848 21850 1 121.3800518 83.010560
1148 21849 6026 1 109.50000 418.400000
1148 21849 6027 1 109.50000 418.400000
1148 21849 21848 1 103.70004 836.800000
6026 21849 6027 1 109.50000 418.400000
6026 21849 21848 1 103.70004 836.800000
6027 21849 21848 1 103.70004 836.800000
21848 21850 21851 1 119.8800511 375.723200
21848 21850 21852 1 120.0200517 532.790560
21851 21850 21852 1 119.8800511 375.723200
21850 21852 21853 1 119.8800511 375.723200
21850 21852 21854 1 120.0200517 532.790560
21853 21852 21854 1 119.8800511 375.723200
21852 21854 21855 1 119.8800511 375.723200
21852 21854 21856 1 120.0200517 532.790560
21855 21854 21856 1 119.8800511 375.723200
21847 21856 21854 1 120.0200517 532.790560
21847 21856 21857 1 119.8800511 375.723200
21854 21856 21857 1 119.8800511 375.723200
21858 21859 21860 1 119.8800511 375.723200
21858 21859 21868 1 119.8800511 375.723200
21860 21859 21868 1 120.0200517 532.790560
21859 21860 21861 1 121.3800518 83.010560
21859 21860 21862 1 120.0200517 532.790560
21861 21860 21862 1 121.3800518 83.010560
3645 21861 6032 1 109.50000 418.400000
3645 21861 9558 1 109.50000 418.400000
3645 21861 21860 1 103.70004 836.800000
6032 21861 9558 1 109.50000 418.400000
6032 21861 21860 1 103.70004 836.800000
9558 21861 21860 1 103.70004 836.800000
21860 21862 21863 1 119.8800511 375.723200
21860 21862 21864 1 120.0200517 532.790560
21863 21862 21864 1 119.8800511 375.723200
21862 21864 21865 1 119.8800511 375.723200
21862 21864 21866 1 120.0200517 532.790560
21865 21864 21866 1 119.8800511 375.723200
21864 21866 21867 1 119.8800511 375.723200
21864 21866 21868 1 120.0200517 532.790560
21867 21866 21868 1 119.8800511 375.723200
21859 21868 21866 1 120.0200517 532.790560
21859 21868 21869 1 119.8800511 375.723200
21866 21868 21869 1 119.8800511 375.723200
21870 21871 21872 1 119.8800511 375.723200
21870 21871 21880 1 119.8800511 375.723200
21872 21871 21880 1 120.0200517 532.790560
21871 21872 21873 1 121.3800518 83.010560
21871 21872 21874 1 120.0200517 532.790560
21873 21872 21874 1 121.3800518 83.010560
2163 21873 2164 1 109.50000 418.400000
2163 21873 6038 1 109.50000 418.400000
2163 21873 21872 1 103.70004 836.800000
2164 21873 6038 1 109.50000 418.400000
2164 21873 21872 1 103.70004 836.800000
6038 21873 21872 1 103.70004 836.800000
21872 21874 21875 1 119.8800511 375.723200
21872 21874 21876 1 120.0200517 532.790560
21875 21874 21876 1 119.8800511 375.723200
21874 21876 21877 1 119.8800511 375.723200
21874 21876 21878 1 120.0200517 532.790560
21877 21876 21878 1 119.8800511 375.723200
21876 21878 21879 1 119.8800511 375.723200
21876 21878 21880 1 120.0200517 532.790560
21879 21878 21880 1 119.8800511 375.723200
21871 21880 21878 1 120.0200517 532.790560
21871 21880 21881 1 119.8800511 375.723200
21878 21880 21881 1 119.8800511 375.723200
21882 21883 21884 1 119.8800511 375.723200
21882 21883 21892 1 119.8800511 375.723200
21884 21883 21892 1 120.0200517 532.790560
21883 21884 21885 1 121.3800518 83.010560
21883 21884 21886 1 120.0200517 532.790560
21885 21884 21886 1 121.3800518 83.010560
6088 21885 6089 1 109.50000 418.400000
6088 21885 8294 1 109.50000 418.400000
6088 21885 21884 1 103.70004 836.800000
6089 21885 8294 1 109.50000 418.400000
6089 21885 21884 1 103.70004 836.800000
8294 21885 21884 1 103.70004 836.800000
21884 21886 21887 1 119.8800511 375.723200
21884 21886 21888 1 120.0200517 532.790560
21887 21886 21888 1 119.8800511 375.723200
21886 21888 21889 1 119.8800511 375.723200
21886 21888 21890 1 120.0200517 532.790560
21889 21888 21890 1 119.8800511 375.723200
21888 21890 21891 1 119.8800511 375.723200
21888 21890 21892 1 120.0200517 532.790560
21891 21890 21892 1 119.8800511 375.723200
21883 21892 21890 1 120.0200517 532.790560
21883 21892 21893 1 119.8800511 375.723200
21890 21892 21893 1 119.8800511 375.723200
21894 21895 21896 1 119.8800511 375.723200
21894 21895 21904 1 119.8800511 375.723200
21896 21895 21904 1 120.0200517 532.790560
21895 21896 21897 1 121.3800518 83.010560
21895 21896 21898 1 120.0200517 532.790560
21897 21896 21898 1 121.3800518 83.010560
521 21897 523 1 109.50000 418.400000
521 21897 2066 1 109.50000 418.400000
521 21897 21896 1 103.70004 836.800000
523 21897 2066 1 109.50000 418.400000
523 21897 21896 1 103.70004 836.800000
2066 21897 21896 1 103.70004 836.800000
21896 21898 21899 1 119.8800511 375.723200
21896 21898 21900 1 120.0200517 532.790560
21899 21898 21900 1 119.8800511 375.723200
21898 21900 21901 1 119.8800511 375.723200
21898 21900 21902 1 120.0200517 532.790560
21901 21900 21902 1 119.8800511 375.723200
21900 21902 21903 1 119.8800511 375.723200
21900 21902 21904 1 120.0200517 532.790560
21903 21902 21904 1 119.8800511 375.723200
21895 21904 21902 1 120.0200517 532.790560
21895 21904 21905 1 119.8800511 375.723200
21902 21904 21905 1 119.8800511 375.723200
21906 21907 21908 1 119.8800511 375.723200
21906 21907 21916 1 119.8800511 375.723200
21908 21907 21916 1 120.0200517 532.790560
21907 21908 21909 1 121.3800518 83.010560
21907 21908 21910 1 120.0200517 532.790560
21909 21908 21910 1 121.3800518 83.010560
6099 21909 6100 1 109.50000 418.400000
6099 21909 6101 1 109.50000 418.400000
6099 21909 21908 1 103.70004 836.800000
6100 21909 6101 1 109.50000 418.400000
6100 21909 21908 1 103.70004 836.800000
6101 21909 21908 1 103.70004 836.800000
21908 21910 21911 1 119.8800511 375.723200
21908 21910 21912 1 120.0200517 532.790560
21911 21910 21912 1 119.8800511 375.723200
21910 21912 21913 1 119.8800511 375.723200
21910 21912 21914 1 120.0200517 532.790560
21913 21912 21914 1 119.8800511 375.723200
21912 21914 21915 1 119.8800511 375.723200
21912 21914 21916 1 120.0200517 532.790560
21915 21914 21916 1 119.8800511 375.723200
21907 21916 21914 1 120.0200517 532.790560
21907 21916 21917 1 119.8800511 375.723200
21914 21916 21917 1 119.8800511 375.723200
21918 21919 21920 1 119.8800511 375.723200
21918 21919 21928 1 119.8800511 375.723200
21920 21919 21928 1 120.0200517 532.790560
21919 21920 21921 1 121.3800518 83.010560
21919 21920 21922 1 120.0200517 532.790560
21921 21920 21922 1 121.3800518 83.010560
6108 21921 6109 1 109.50000 418.400000
6108 21921 6110 1 109.50000 418.400000
6108 21921 21920 1 103.70004 836.800000
6109 21921 6110 1 109.50000 418.400000
6109 21921 21920 1 103.70004 836.800000
6110 21921 21920 1 103.70004 836.800000
21920 21922 21923 1 119.8800511 375.723200
21920 21922 21924 1 120.0200517 532.790560
21923 21922 21924 1 119.8800511 375.723200
21922 21924 21925 1 119.8800511 375.723200
21922 21924 21926 1 120.0200517 532.790560
21925 21924 21926 1 119.8800511 375.723200
21924 21926 21927 1 119.8800511 375.723200
21924 21926 21928 1 120.0200517 532.790560
21927 21926 21928 1 119.8800511 375.723200
21919 21928 21926 1 120.0200517 532.790560
21919 21928 21929 1 119.8800511 375.723200
21926 21928 21929 1 119.8800511 375.723200
21930 21931 21932 1 119.8800511 375.723200
21930 21931 21940 1 119.8800511 375.723200
21932 21931 21940 1 120.0200517 532.790560
21931 21932 21933 1 121.3800518 83.010560
21931 21932 21934 1 120.0200517 532.790560
21933 21932 21934 1 121.3800518 83.010560
4349 21933 6116 1 109.50000 418.400000
4349 21933 6117 1 109.50000 418.400000
4349 21933 21932 1 103.70004 836.800000
6116 21933 6117 1 109.50000 418.400000
6116 21933 21932 1 103.70004 836.800000
6117 21933 21932 1 103.70004 836.800000
21932 21934 21935 1 119.8800511 375.723200
21932 21934 21936 1 120.0200517 532.790560
21935 21934 21936 1 119.8800511 375.723200
21934 21936 21937 1 119.8800511 375.723200
21934 21936 21938 1 120.0200517 532.790560
21937 21936 21938 1 119.8800511 375.723200
21936 21938 21939 1 119.8800511 375.723200
21936 21938 21940 1 120.0200517 532.790560
21939 21938 21940 1 119.8800511 375.723200
21931 21940 21938 1 120.0200517 532.790560
21931 21940 21941 1 119.8800511 375.723200
21938 21940 21941 1 119.8800511 375.723200
21942 21943 21944 1 119.8800511 375.723200
21942 21943 21952 1 119.8800511 375.723200
21944 21943 21952 1 120.0200517 532.790560
21943 21944 21945 1 121.3800518 83.010560
21943 21944 21946 1 120.0200517 532.790560
21945 21944 21946 1 121.3800518 83.010560
4795 21945 6122 1 109.50000 418.400000
4795 21945 6123 1 109.50000 418.400000
4795 21945 21944 1 103.70004 836.800000
6122 21945 6123 1 109.50000 418.400000
6122 21945 21944 1 103.70004 836.800000
6123 21945 21944 1 103.70004 836.800000
21944 21946 21947 1 119.8800511 375.723200
21944 21946 21948 1 120.0200517 532.790560
21947 21946 21948 1 119.8800511 375.723200
21946 21948 21949 1 119.8800511 375.723200
21946 21948 21950 1 120.0200517 532.790560
21949 21948 21950 1 119.8800511 375.723200
21948 21950 21951 1 119.8800511 375.723200
21948 21950 21952 1 120.0200517 532.790560
21951 21950 21952 1 119.8800511 375.723200
21943 21952 21950 1 120.0200517 532.790560
21943 21952 21953 1 119.8800511 375.723200
21950 21952 21953 1 119.8800511 375.723200
21954 21955 21956 1 119.8800511 375.723200
21954 21955 21964 1 119.8800511 375.723200
21956 21955 21964 1 120.0200517 532.790560
21955 21956 21957 1 121.3800518 83.010560
21955 21956 21958 1 120.0200517 532.790560
21957 21956 21958 1 121.3800518 83.010560
2620 21957 6148 1 109.50000 418.400000
2620 21957 6149 1 109.50000 418.400000
2620 21957 21956 1 103.70004 836.800000
6148 21957 6149 1 109.50000 418.400000
6148 21957 21956 1 103.70004 836.800000
6149 21957 21956 1 103.70004 836.800000
21956 21958 21959 1 119.8800511 375.723200
21956 21958 21960 1 120.0200517 532.790560
21959 21958 21960 1 119.8800511 375.723200
21958 21960 21961 1 119.8800511 375.723200
21958 21960 21962 1 120.0200517 532.790560
21961 21960 21962 1 119.8800511 375.723200
21960 21962 21963 1 119.8800511 375.723200
21960 21962 21964 1 120.0200517 532.790560
21963 21962 21964 1 119.8800511 375.723200
21955 21964 21962 1 120.0200517 532.790560
21955 21964 21965 1 119.8800511 375.723200
21962 21964 21965 1 119.8800511 375.723200
21966 21967 21968 1 119.8800511 375.723200
21966 21967 21976 1 119.8800511 375.723200
21968 21967 21976 1 120.0200517 532.790560
21967 21968 21969 1 121.3800518 83.010560
21967 21968 21970 1 120.0200517 532.790560
21969 21968 21970 1 121.3800518 83.010560
1369 21969 6163 1 109.50000 418.400000
1369 21969 6164 1 109.50000 418.400000
1369 21969 21968 1 103.70004 836.800000
6163 21969 6164 1 109.50000 418.400000
6163 21969 21968 1 103.70004 836.800000
6164 21969 21968 1 103.70004 836.800000
21968 21970 21971 1 119.8800511 375.723200
21968 21970 21972 1 120.0200517 532.790560
21971 21970 21972 1 119.8800511 375.723200
21970 21972 21973 1 119.8800511 375.723200
21970 21972 21974 1 120.0200517 532.790560
21973 21972 21974 1 119.8800511 375.723200
21972 21974 21975 1 119.8800511 375.723200
21972 21974 21976 1 120.0200517 532.790560
21975 21974 21976 1 119.8800511 375.723200
21967 21976 21974 1 120.0200517 532.790560
21967 21976 21977 1 119.8800511 375.723200
21974 21976 21977 1 119.8800511 375.723200
21978 21979 21980 1 119.8800511 375.723200
21978 21979 21988 1 119.8800511 375.723200
21980 21979 21988 1 120.0200517 532.790560
21979 21980 21981 1 121.3800518 83.010560
21979 21980 21982 1 120.0200517 532.790560
21981 21980 21982 1 121.3800518 83.010560
6038 21981 6173 1 109.50000 418.400000
6038 21981 6174 1 109.50000 418.400000
6038 21981 21980 1 103.70004 836.800000
6173 21981 6174 1 109.50000 418.400000
6173 21981 21980 1 103.70004 836.800000
6174 21981 21980 1 103.70004 836.800000
21980 21982 21983 1 119.8800511 375.723200
21980 21982 21984 1 120.0200517 532.790560
21983 21982 21984 1 119.8800511 375.723200
21982 21984 21985 1 119.8800511 375.723200
21982 21984 21986 1 120.0200517 532.790560
21985 21984 21986 1 119.8800511 375.723200
21984 21986 21987 1 119.8800511 375.723200
21984 21986 21988 1 120.0200517 532.790560
21987 21986 21988 1 119.8800511 375.723200
21979 21988 21986 1 120.0200517 532.790560
21979 21988 21989 1 119.8800511 375.723200
21986 21988 21989 1 119.8800511 375.723200
21990 21991 21992 1 119.8800511 375.723200
21990 21991 22000 1 119.8800511 375.723200
21992 21991 22000 1 120.0200517 532.790560
21991 21992 21993 1 121.3800518 83.010560
21991 21992 21994 1 120.0200517 532.790560
21993 21992 21994 1 121.3800518 83.010560
221 21993 5234 1 109.50000 418.400000
221 21993 6192 1 109.50000 418.400000
221 21993 21992 1 103.70004 836.800000
5234 21993 6192 1 109.50000 418.400000
5234 21993 21992 1 103.70004 836.800000
6192 21993 21992 1 103.70004 836.800000
21992 21994 21995 1 119.8800511 375.723200
21992 21994 21996 1 120.0200517 532.790560
21995 21994 21996 1 119.8800511 375.723200
21994 21996 21997 1 119.8800511 375.723200
21994 21996 21998 1 120.0200517 532.790560
21997 21996 21998 1 119.8800511 375.723200
21996 21998 21999 1 119.8800511 375.723200
21996 21998 22000 1 120.0200517 532.790560
21999 21998 22000 1 119.8800511 375.723200
21991 22000 21998 1 120.0200517 532.790560
21991 22000 22001 1 119.8800511 375.723200
21998 22000 22001 1 119.8800511 375.723200
22002 22003 22004 1 119.8800511 375.723200
22002 22003 22012 1 119.8800511 375.723200
22004 22003 22012 1 120.0200517 532.790560
22003 22004 22005 1 121.3800518 83.010560
22003 22004 22006 1 120.0200517 532.790560
22005 22004 22006 1 121.3800518 83.010560
2045 22005 6197 1 109.50000 418.400000
2045 22005 6198 1 109.50000 418.400000
2045 22005 22004 1 103.70004 836.800000
6197 22005 6198 1 109.50000 418.400000
6197 22005 22004 1 103.70004 836.800000
6198 22005 22004 1 103.70004 836.800000
22004 22006 22007 1 119.8800511 375.723200
22004 22006 22008 1 120.0200517 532.790560
22007 22006 22008 1 119.8800511 375.723200
22006 22008 22009 1 119.8800511 375.723200
22006 22008 22010 1 120.0200517 532.790560
22009 22008 22010 1 119.8800511 375.723200
22008 22010 22011 1 119.8800511 375.723200
22008 22010 22012 1 120.0200517 532.790560
22011 22010 22012 1 119.8800511 375.723200
22003 22012 22010 1 120.0200517 532.790560
22003 22012 22013 1 119.8800511 375.723200
22010 22012 22013 1 119.8800511 375.723200
22014 22015 22016 1 119.8800511 375.723200
22014 22015 22024 1 119.8800511 375.723200
22016 22015 22024 1 120.0200517 532.790560
22015 22016 22017 1 121.3800518 83.010560
22015 22016 22018 1 120.0200517 532.790560
22017 22016 22018 1 121.3800518 83.010560
6230 22017 6231 1 109.50000 418.400000
6230 22017 6232 1 109.50000 418.400000
6230 22017 22016 1 103.70004 836.800000
6231 22017 6232 1 109.50000 418.400000
6231 22017 22016 1 103.70004 836.800000
6232 22017 22016 1 103.70004 836.800000
22016 22018 22019 1 119.8800511 375.723200
22016 22018 22020 1 120.0200517 532.790560
22019 22018 22020 1 119.8800511 375.723200
22018 22020 22021 1 119.8800511 375.723200
22018 22020 22022 1 120.0200517 532.790560
22021 22020 22022 1 119.8800511 375.723200
22020 22022 22023 1 119.8800511 375.723200
22020 22022 22024 1 120.0200517 532.790560
22023 22022 22024 1 119.8800511 375.723200
22015 22024 22022 1 120.0200517 532.790560
22015 22024 22025 1 119.8800511 375.723200
22022 22024 22025 1 119.8800511 375.723200
22026 22027 22028 1 119.8800511 375.723200
22026 22027 22036 1 119.8800511 375.723200
22028 22027 22036 1 120.0200517 532.790560
22027 22028 22029 1 121.3800518 83.010560
22027 22028 22030 1 120.0200517 532.790560
22029 22028 22030 1 121.3800518 83.010560
4278 22029 4930 1 109.50000 418.400000
4278 22029 6233 1 109.50000 418.400000
4278 22029 22028 1 103.70004 836.800000
4930 22029 6233 1 109.50000 418.400000
4930 22029 22028 1 103.70004 836.800000
6233 22029 22028 1 103.70004 836.800000
22028 22030 22031 1 119.8800511 375.723200
22028 22030 22032 1 120.0200517 532.790560
22031 22030 22032 1 119.8800511 375.723200
22030 22032 22033 1 119.8800511 375.723200
22030 22032 22034 1 120.0200517 532.790560
22033 22032 22034 1 119.8800511 375.723200
22032 22034 22035 1 119.8800511 375.723200
22032 22034 22036 1 120.0200517 532.790560
22035 22034 22036 1 119.8800511 375.723200
22027 22036 22034 1 120.0200517 532.790560
22027 22036 22037 1 119.8800511 375.723200
22034 22036 22037 1 119.8800511 375.723200
22038 22039 22040 1 119.8800511 375.723200
22038 22039 22048 1 119.8800511 375.723200
22040 22039 22048 1 120.0200517 532.790560
22039 22040 22041 1 121.3800518 83.010560
22039 22040 22042 1 120.0200517 532.790560
22041 22040 22042 1 121.3800518 83.010560
6262 22041 6263 1 109.50000 418.400000
6262 22041 6264 1 109.50000 418.400000
6262 22041 22040 1 103.70004 836.800000
6263 22041 6264 1 109.50000 418.400000
6263 22041 22040 1 103.70004 836.800000
6264 22041 22040 1 103.70004 836.800000
22040 22042 22043 1 119.8800511 375.723200
22040 22042 22044 1 120.0200517 532.790560
22043 22042 22044 1 119.8800511 375.723200
22042 22044 22045 1 119.8800511 375.723200
22042 22044 22046 1 120.0200517 532.790560
22045 22044 22046 1 119.8800511 375.723200
22044 22046 22047 1 119.8800511 375.723200
22044 22046 22048 1 120.0200517 532.790560
22047 22046 22048 1 119.8800511 375.723200
22039 22048 22046 1 120.0200517 532.790560
22039 22048 22049 1 119.8800511 375.723200
22046 22048 22049 1 119.8800511 375.723200
22050 22051 22052 1 119.8800511 375.723200
22050 22051 22060 1 119.8800511 375.723200
22052 22051 22060 1 120.0200517 532.790560
22051 22052 22053 1 121.3800518 83.010560
22051 22052 22054 1 120.0200517 532.790560
22053 22052 22054 1 121.3800518 83.010560
4554 22053 6276 1 109.50000 418.400000
4554 22053 6277 1 109.50000 418.400000
4554 22053 22052 1 103.70004 836.800000
6276 22053 6277 1 109.50000 418.400000
6276 22053 22052 1 103.70004 836.800000
6277 22053 22052 1 103.70004 836.800000
22052 22054 22055 1 119.8800511 375.723200
22052 22054 22056 1 120.0200517 532.790560
22055 22054 22056 1 119.8800511 375.723200
22054 22056 22057 1 119.8800511 375.723200
22054 22056 22058 1 120.0200517 532.790560
22057 22056 22058 1 119.8800511 375.723200
22056 22058 22059 1 119.8800511 375.723200
22056 22058 22060 1 120.0200517 532.790560
22059 22058 22060 1 119.8800511 375.723200
22051 22060 22058 1 120.0200517 532.790560
22051 22060 22061 1 119.8800511 375.723200
22058 22060 22061 1 119.8800511 375.723200
22062 22063 22064 1 119.8800511 375.723200
22062 22063 22072 1 119.8800511 375.723200
22064 22063 22072 1 120.0200517 532.790560
22063 22064 22065 1 121.3800518 83.010560
22063 22064 22066 1 120.0200517 532.790560
22065 22064 22066 1 121.3800518 83.010560
5218 22065 6309 1 109.50000 418.400000
5218 22065 6310 1 109.50000 418.400000
5218 22065 22064 1 103.70004 836.800000
6309 22065 6310 1 109.50000 418.400000
6309 22065 22064 1 103.70004 836.800000
6310 22065 22064 1 103.70004 836.800000
22064 22066 22067 1 119.8800511 375.723200
22064 22066 22068 1 120.0200517 532.790560
22067 22066 22068 1 119.8800511 375.723200
22066 22068 22069 1 119.8800511 375.723200
22066 22068 22070 1 120.0200517 532.790560
22069 22068 22070 1 119.8800511 375.723200
22068 22070 22071 1 119.8800511 375.723200
22068 22070 22072 1 120.0200517 532.790560
22071 22070 22072 1 119.8800511 375.723200
22063 22072 22070 1 120.0200517 532.790560
22063 22072 22073 1 119.8800511 375.723200
22070 22072 22073 1 119.8800511 375.723200
22074 22075 22076 1 119.8800511 375.723200
22074 22075 22084 1 119.8800511 375.723200
22076 22075 22084 1 120.0200517 532.790560
22075 22076 22077 1 121.3800518 83.010560
22075 22076 22078 1 120.0200517 532.790560
22077 22076 22078 1 121.3800518 83.010560
2557 22077 2560 1 109.50000 418.400000
2557 22077 6335 1 109.50000 418.400000
2557 22077 22076 1 103.70004 836.800000
2560 22077 6335 1 109.50000 418.400000
2560 22077 22076 1 103.70004 836.800000
6335 22077 22076 1 103.70004 836.800000
22076 22078 22079 1 119.8800511 375.723200
22076 22078 22080 1 120.0200517 532.790560
22079 22078 22080 1 119.8800511 375.723200
22078 22080 22081 1 119.8800511 375.723200
22078 22080 22082 1 120.0200517 532.790560
22081 22080 22082 1 119.8800511 375.723200
22080 22082 22083 1 119.8800511 375.723200
22080 22082 22084 1 120.0200517 532.790560
22083 22082 22084 1 119.8800511 375.723200
22075 22084 22082 1 120.0200517 532.790560
22075 22084 22085 1 119.8800511 375.723200
22082 22084 22085 1 119.8800511 375.723200
22086 22087 22088 1 119.8800511 375.723200
22086 22087 22096 1 119.8800511 375.723200
22088 22087 22096 1 120.0200517 532.790560
22087 22088 22089 1 121.3800518 83.010560
22087 22088 22090 1 120.0200517 532.790560
22089 22088 22090 1 121.3800518 83.010560
6378 22089 6379 1 109.50000 418.400000
6378 22089 6380 1 109.50000 418.400000
6378 22089 22088 1 103.70004 836.800000
6379 22089 6380 1 109.50000 418.400000
6379 22089 22088 1 103.70004 836.800000
6380 22089 22088 1 103.70004 836.800000
22088 22090 22091 1 119.8800511 375.723200
22088 22090 22092 1 120.0200517 532.790560
22091 22090 22092 1 119.8800511 375.723200
22090 22092 22093 1 119.8800511 375.723200
22090 22092 22094 1 120.0200517 532.790560
22093 22092 22094 1 119.8800511 375.723200
22092 22094 22095 1 119.8800511 375.723200
22092 22094 22096 1 120.0200517 532.790560
22095 22094 22096 1 119.8800511 375.723200
22087 22096 22094 1 120.0200517 532.790560
22087 22096 22097 1 119.8800511 375.723200
22094 22096 22097 1 119.8800511 375.723200
22098 22099 22100 1 119.8800511 375.723200
22098 22099 22108 1 119.8800511 375.723200
22100 22099 22108 1 120.0200517 532.790560
22099 22100 22101 1 121.3800518 83.010560
22099 22100 22102 1 120.0200517 532.790560
22101 22100 22102 1 121.3800518 83.010560
4513 22101 6383 1 109.50000 418.400000
4513 22101 6384 1 109.50000 418.400000
4513 22101 22100 1 103.70004 836.800000
6383 22101 6384 1 109.50000 418.400000
6383 22101 22100 1 103.70004 836.800000
6384 22101 22100 1 103.70004 836.800000
22100 22102 22103 1 119.8800511 375.723200
22100 22102 22104 1 120.0200517 532.790560
22103 22102 22104 1 119.8800511 375.723200
22102 22104 22105 1 119.8800511 375.723200
22102 22104 22106 1 120.0200517 532.790560
22105 22104 22106 1 119.8800511 375.723200
22104 22106 22107 1 119.8800511 375.723200
22104 22106 22108 1 120.0200517 532.790560
22107 22106 22108 1 119.8800511 375.723200
22099 22108 22106 1 120.0200517 532.790560
22099 22108 22109 1 119.8800511 375.723200
22106 22108 22109 1 119.8800511 375.723200
22110 22111 22112 1 119.8800511 375.723200
22110 22111 22120 1 119.8800511 375.723200
22112 22111 22120 1 120.0200517 532.790560
22111 22112 22113 1 121.3800518 83.010560
22111 22112 22114 1 120.0200517 532.790560
22113 22112 22114 1 121.3800518 83.010560
2730 22113 6385 1 109.50000 418.400000
2730 22113 6386 1 109.50000 418.400000
2730 22113 22112 1 103.70004 836.800000
6385 22113 6386 1 109.50000 418.400000
6385 22113 22112 1 103.70004 836.800000
6386 22113 22112 1 103.70004 836.800000
22112 22114 22115 1 119.8800511 375.723200
22112 22114 22116 1 120.0200517 532.790560
22115 22114 22116 1 119.8800511 375.723200
22114 22116 22117 1 119.8800511 375.723200
22114 22116 22118 1 120.0200517 532.790560
22117 22116 22118 1 119.8800511 375.723200
22116 22118 22119 1 119.8800511 375.723200
22116 22118 22120 1 120.0200517 532.790560
22119 22118 22120 1 119.8800511 375.723200
22111 22120 22118 1 120.0200517 532.790560
22111 22120 22121 1 119.8800511 375.723200
22118 22120 22121 1 119.8800511 375.723200
22122 22123 22124 1 119.8800511 375.723200
22122 22123 22132 1 119.8800511 375.723200
22124 22123 22132 1 120.0200517 532.790560
22123 22124 22125 1 121.3800518 83.010560
22123 22124 22126 1 120.0200517 532.790560
22125 22124 22126 1 121.3800518 83.010560
6395 22125 6396 1 109.50000 418.400000
6395 22125 6397 1 109.50000 418.400000
6395 22125 22124 1 103.70004 836.800000
6396 22125 6397 1 109.50000 418.400000
6396 22125 22124 1 103.70004 836.800000
6397 22125 22124 1 103.70004 836.800000
22124 22126 22127 1 119.8800511 375.723200
22124 22126 22128 1 120.0200517 532.790560
22127 22126 22128 1 119.8800511 375.723200
22126 22128 22129 1 119.8800511 375.723200
22126 22128 22130 1 120.0200517 532.790560
22129 22128 22130 1 119.8800511 375.723200
22128 22130 22131 1 119.8800511 375.723200
22128 22130 22132 1 120.0200517 532.790560
22131 22130 22132 1 119.8800511 375.723200
22123 22132 22130 1 120.0200517 532.790560
22123 22132 22133 1 119.8800511 375.723200
22130 22132 22133 1 119.8800511 375.723200
22134 22135 22136 1 119.8800511 375.723200
22134 22135 22144 1 119.8800511 375.723200
22136 22135 22144 1 120.0200517 532.790560
22135 22136 22137 1 121.3800518 83.010560
22135 22136 22138 1 120.0200517 532.790560
22137 22136 22138 1 121.3800518 83.010560
6404 22137 6405 1 109.50000 418.400000
6404 22137 6406 1 109.50000 418.400000
6404 22137 22136 1 103.70004 836.800000
6405 22137 6406 1 109.50000 418.400000
6405 22137 22136 1 103.70004 836.800000
6406 22137 22136 1 103.70004 836.800000
22136 22138 22139 1 119.8800511 375.723200
22136 22138 22140 1 120.0200517 532.790560
22139 22138 22140 1 119.8800511 375.723200
22138 22140 22141 1 119.8800511 375.723200
22138 22140 22142 1 120.0200517 532.790560
22141 22140 22142 1 119.8800511 375.723200
22140 22142 22143 1 119.8800511 375.723200
22140 22142 22144 1 120.0200517 532.790560
22143 22142 22144 1 119.8800511 375.723200
22135 22144 22142 1 120.0200517 532.790560
22135 22144 22145 1 119.8800511 375.723200
22142 22144 22145 1 119.8800511 375.723200
22146 22147 22148 1 119.8800511 375.723200
22146 22147 22156 1 119.8800511 375.723200
22148 22147 22156 1 120.0200517 532.790560
22147 22148 22149 1 121.3800518 83.010560
22147 22148 22150 1 120.0200517 532.790560
22149 22148 22150 1 121.3800518 83.010560
3302 22149 4511 1 109.50000 418.400000
3302 22149 6423 1 109.50000 418.400000
3302 22149 22148 1 103.70004 836.800000
4511 22149 6423 1 109.50000 418.400000
4511 22149 22148 1 103.70004 836.800000
6423 22149 22148 1 103.70004 836.800000
22148 22150 22151 1 119.8800511 375.723200
22148 22150 22152 1 120.0200517 532.790560
22151 22150 22152 1 119.8800511 375.723200
22150 22152 22153 1 119.8800511 375.723200
22150 22152 22154 1 120.0200517 532.790560
22153 22152 22154 1 119.8800511 375.723200
22152 22154 22155 1 119.8800511 375.723200
22152 22154 22156 1 120.0200517 532.790560
22155 22154 22156 1 119.8800511 375.723200
22147 22156 22154 1 120.0200517 532.790560
22147 22156 22157 1 119.8800511 375.723200
22154 22156 22157 1 119.8800511 375.723200
22158 22159 22160 1 119.8800511 375.723200
22158 22159 22168 1 119.8800511 375.723200
22160 22159 22168 1 120.0200517 532.790560
22159 22160 22161 1 121.3800518 83.010560
22159 22160 22162 1 120.0200517 532.790560
22161 22160 22162 1 121.3800518 83.010560
1020 22161 2731 1 109.50000 418.400000
1020 22161 6467 1 109.50000 418.400000
1020 22161 22160 1 103.70004 836.800000
2731 22161 6467 1 109.50000 418.400000
2731 22161 22160 1 103.70004 836.800000
6467 22161 22160 1 103.70004 836.800000
22160 22162 22163 1 119.8800511 375.723200
22160 22162 22164 1 120.0200517 532.790560
22163 22162 22164 1 119.8800511 375.723200
22162 22164 22165 1 119.8800511 375.723200
22162 22164 22166 1 120.0200517 532.790560
22165 22164 22166 1 119.8800511 375.723200
22164 22166 22167 1 119.8800511 375.723200
22164 22166 22168 1 120.0200517 532.790560
22167 22166 22168 1 119.8800511 375.723200
22159 22168 22166 1 120.0200517 532.790560
22159 22168 22169 1 119.8800511 375.723200
22166 22168 22169 1 119.8800511 375.723200
22170 22171 22172 1 119.8800511 375.723200
22170 22171 22180 1 119.8800511 375.723200
22172 22171 22180 1 120.0200517 532.790560
22171 22172 22173 1 121.3800518 83.010560
22171 22172 22174 1 120.0200517 532.790560
22173 22172 22174 1 121.3800518 83.010560
6486 22173 6487 1 109.50000 418.400000
6486 22173 7783 1 109.50000 418.400000
6486 22173 22172 1 103.70004 836.800000
6487 22173 7783 1 109.50000 418.400000
6487 22173 22172 1 103.70004 836.800000
7783 22173 22172 1 103.70004 836.800000
22172 22174 22175 1 119.8800511 375.723200
22172 22174 22176 1 120.0200517 532.790560
22175 22174 22176 1 119.8800511 375.723200
22174 22176 22177 1 119.8800511 375.723200
22174 22176 22178 1 120.0200517 532.790560
22177 22176 22178 1 119.8800511 375.723200
22176 22178 22179 1 119.8800511 375.723200
22176 22178 22180 1 120.0200517 532.790560
22179 22178 22180 1 119.8800511 375.723200
22171 22180 22178 1 120.0200517 532.790560
22171 22180 22181 1 119.8800511 375.723200
22178 22180 22181 1 119.8800511 375.723200
22182 22183 22184 1 119.8800511 375.723200
22182 22183 22192 1 119.8800511 375.723200
22184 22183 22192 1 120.0200517 532.790560
22183 22184 22185 1 121.3800518 83.010560
22183 22184 22186 1 120.0200517 532.790560
22185 22184 22186 1 121.3800518 83.010560
4937 22185 6525 1 109.50000 418.400000
4937 22185 10238 1 109.50000 418.400000
4937 22185 22184 1 103.70004 836.800000
6525 22185 10238 1 109.50000 418.400000
6525 22185 22184 1 103.70004 836.800000
10238 22185 22184 1 103.70004 836.800000
22184 22186 22187 1 119.8800511 375.723200
22184 22186 22188 1 120.0200517 532.790560
22187 22186 22188 1 119.8800511 375.723200
22186 22188 22189 1 119.8800511 375.723200
22186 22188 22190 1 120.0200517 532.790560
22189 22188 22190 1 119.8800511 375.723200
22188 22190 22191 1 119.8800511 375.723200
22188 22190 22192 1 120.0200517 532.790560
22191 22190 22192 1 119.8800511 375.723200
22183 22192 22190 1 120.0200517 532.790560
22183 22192 22193 1 119.8800511 375.723200
22190 22192 22193 1 119.8800511 375.723200
22194 22195 22196 1 119.8800511 375.723200
22194 22195 22204 1 119.8800511 375.723200
22196 22195 22204 1 120.0200517 532.790560
22195 22196 22197 1 121.3800518 83.010560
22195 22196 22198 1 120.0200517 532.790560
22197 22196 22198 1 121.3800518 83.010560
4777 22197 5251 1 109.50000 418.400000
4777 22197 6526 1 109.50000 418.400000
4777 22197 22196 1 103.70004 836.800000
5251 22197 6526 1 109.50000 418.400000
5251 22197 22196 1 103.70004 836.800000
6526 22197 22196 1 103.70004 836.800000
22196 22198 22199 1 119.8800511 375.723200
22196 22198 22200 1 120.0200517 532.790560
22199 22198 22200 1 119.8800511 375.723200
22198 22200 22201 1 119.8800511 375.723200
22198 22200 22202 1 120.0200517 532.790560
22201 22200 22202 1 119.8800511 375.723200
22200 22202 22203 1 119.8800511 375.723200
22200 22202 22204 1 120.0200517 532.790560
22203 22202 22204 1 119.8800511 375.723200
22195 22204 22202 1 120.0200517 532.790560
22195 22204 22205 1 119.8800511 375.723200
22202 22204 22205 1 119.8800511 375.723200
22206 22207 22208 1 119.8800511 375.723200
22206 22207 22216 1 119.8800511 375.723200
22208 22207 22216 1 120.0200517 532.790560
22207 22208 22209 1 121.3800518 83.010560
22207 22208 22210 1 120.0200517 532.790560
22209 22208 22210 1 121.3800518 83.010560
2107 22209 6556 1 109.50000 418.400000
2107 22209 6557 1 109.50000 418.400000
2107 22209 22208 1 103.70004 836.800000
6556 22209 6557 1 109.50000 418.400000
6556 22209 22208 1 103.70004 836.800000
6557 22209 22208 1 103.70004 836.800000
22208 22210 22211 1 119.8800511 375.723200
22208 22210 22212 1 120.0200517 532.790560
22211 22210 22212 1 119.8800511 375.723200
22210 22212 22213 1 119.8800511 375.723200
22210 22212 22214 1 120.0200517 532.790560
22213 22212 22214 1 119.8800511 375.723200
22212 22214 22215 1 119.8800511 375.723200
22212 22214 22216 1 120.0200517 532.790560
22215 22214 22216 1 119.8800511 375.723200
22207 22216 22214 1 120.0200517 532.790560
22207 22216 22217 1 119.8800511 375.723200
22214 22216 22217 1 119.8800511 375.723200
22218 22219 22220 1 119.8800511 375.723200
22218 22219 22228 1 119.8800511 375.723200
22220 22219 22228 1 120.0200517 532.790560
22219 22220 22221 1 121.3800518 83.010560
22219 22220 22222 1 120.0200517 532.790560
22221 22220 22222 1 121.3800518 83.010560
6566 22221 6567 1 109.50000 418.400000
6566 22221 6568 1 109.50000 418.400000
6566 22221 22220 1 103.70004 836.800000
6567 22221 6568 1 109.50000 418.400000
6567 22221 22220 1 103.70004 836.800000
6568 22221 22220 1 103.70004 836.800000
22220 22222 22223 1 119.8800511 375.723200
22220 22222 22224 1 120.0200517 532.790560
22223 22222 22224 1 119.8800511 375.723200
22222 22224 22225 1 119.8800511 375.723200
22222 22224 22226 1 120.0200517 532.790560
22225 22224 22226 1 119.8800511 375.723200
22224 22226 22227 1 119.8800511 375.723200
22224 22226 22228 1 120.0200517 532.790560
22227 22226 22228 1 119.8800511 375.723200
22219 22228 22226 1 120.0200517 532.790560
22219 22228 22229 1 119.8800511 375.723200
22226 22228 22229 1 119.8800511 375.723200
22230 22231 22232 1 119.8800511 375.723200
22230 22231 22240 1 119.8800511 375.723200
22232 22231 22240 1 120.0200517 532.790560
22231 22232 22233 1 121.3800518 83.010560
22231 22232 22234 1 120.0200517 532.790560
22233 22232 22234 1 121.3800518 83.010560
1945 22233 6569 1 109.50000 418.400000
1945 22233 6570 1 109.50000 418.400000
1945 22233 22232 1 103.70004 836.800000
6569 22233 6570 1 109.50000 418.400000
6569 22233 22232 1 103.70004 836.800000
6570 22233 22232 1 103.70004 836.800000
22232 22234 22235 1 119.8800511 375.723200
22232 22234 22236 1 120.0200517 532.790560
22235 22234 22236 1 119.8800511 375.723200
22234 22236 22237 1 119.8800511 375.723200
22234 22236 22238 1 120.0200517 532.790560
22237 22236 22238 1 119.8800511 375.723200
22236 22238 22239 1 119.8800511 375.723200
22236 22238 22240 1 120.0200517 532.790560
22239 22238 22240 1 119.8800511 375.723200
22231 22240 22238 1 120.0200517 532.790560
22231 22240 22241 1 119.8800511 375.723200
22238 22240 22241 1 119.8800511 375.723200
22242 22243 22244 1 119.8800511 375.723200
22242 22243 22252 1 119.8800511 375.723200
22244 22243 22252 1 120.0200517 532.790560
22243 22244 22245 1 121.3800518 83.010560
22243 22244 22246 1 120.0200517 532.790560
22245 22244 22246 1 121.3800518 83.010560
6572 22245 6573 1 109.50000 418.400000
6572 22245 10080 1 109.50000 418.400000
6572 22245 22244 1 103.70004 836.800000
6573 22245 10080 1 109.50000 418.400000
6573 22245 22244 1 103.70004 836.800000
10080 22245 22244 1 103.70004 836.800000
22244 22246 22247 1 119.8800511 375.723200
22244 22246 22248 1 120.0200517 532.790560
22247 22246 22248 1 119.8800511 375.723200
22246 22248 22249 1 119.8800511 375.723200
22246 22248 22250 1 120.0200517 532.790560
22249 22248 22250 1 119.8800511 375.723200
22248 22250 22251 1 119.8800511 375.723200
22248 22250 22252 1 120.0200517 532.790560
22251 22250 22252 1 119.8800511 375.723200
22243 22252 22250 1 120.0200517 532.790560
22243 22252 22253 1 119.8800511 375.723200
22250 22252 22253 1 119.8800511 375.723200
22254 22255 22256 1 119.8800511 375.723200
22254 22255 22264 1 119.8800511 375.723200
22256 22255 22264 1 120.0200517 532.790560
22255 22256 22257 1 121.3800518 83.010560
22255 22256 22258 1 120.0200517 532.790560
22257 22256 22258 1 121.3800518 83.010560
6560 22257 6600 1 109.50000 418.400000
6560 22257 6601 1 109.50000 418.400000
6560 22257 22256 1 103.70004 836.800000
6600 22257 6601 1 109.50000 418.400000
6600 22257 22256 1 103.70004 836.800000
6601 22257 22256 1 103.70004 836.800000
22256 22258 22259 1 119.8800511 375.723200
22256 22258 22260 1 120.0200517 532.790560
22259 22258 22260 1 119.8800511 375.723200
22258 22260 22261 1 119.8800511 375.723200
22258 22260 22262 1 120.0200517 532.790560
22261 22260 22262 1 119.8800511 375.723200
22260 22262 22263 1 119.8800511 375.723200
22260 22262 22264 1 120.0200517 532.790560
22263 22262 22264 1 119.8800511 375.723200
22255 22264 22262 1 120.0200517 532.790560
22255 22264 22265 1 119.8800511 375.723200
22262 22264 22265 1 119.8800511 375.723200
22266 22267 22268 1 119.8800511 375.723200
22266 22267 22276 1 119.8800511 375.723200
22268 22267 22276 1 120.0200517 532.790560
22267 22268 22269 1 121.3800518 83.010560
22267 22268 22270 1 120.0200517 532.790560
22269 22268 22270 1 121.3800518 83.010560
2495 22269 5424 1 109.50000 418.400000
2495 22269 6643 1 109.50000 418.400000
2495 22269 22268 1 103.70004 836.800000
5424 22269 6643 1 109.50000 418.400000
5424 22269 22268 1 103.70004 836.800000
6643 22269 22268 1 103.70004 836.800000
22268 22270 22271 1 119.8800511 375.723200
22268 22270 22272 1 120.0200517 532.790560
22271 22270 22272 1 119.8800511 375.723200
22270 22272 22273 1 119.8800511 375.723200
22270 22272 22274 1 120.0200517 532.790560
22273 22272 22274 1 119.8800511 375.723200
22272 22274 22275 1 119.8800511 375.723200
22272 22274 22276 1 120.0200517 532.790560
22275 22274 22276 1 119.8800511 375.723200
22267 22276 22274 1 120.0200517 532.790560
22267 22276 22277 1 119.8800511 375.723200
22274 22276 22277 1 119.8800511 375.723200
22278 22279 22280 1 119.8800511 375.723200
22278 22279 22288 1 119.8800511 375.723200
22280 22279 22288 1 120.0200517 532.790560
22279 22280 22281 1 121.3800518 83.010560
22279 22280 22282 1 120.0200517 532.790560
22281 22280 22282 1 121.3800518 83.010560
174 22281 6557 1 109.50000 418.400000
174 22281 6647 1 109.50000 418.400000
174 22281 22280 1 103.70004 836.800000
6557 22281 6647 1 109.50000 418.400000
6557 22281 22280 1 103.70004 836.800000
6647 22281 22280 1 103.70004 836.800000
22280 22282 22283 1 119.8800511 375.723200
22280 22282 22284 1 120.0200517 532.790560
22283 22282 22284 1 119.8800511 375.723200
22282 22284 22285 1 119.8800511 375.723200
22282 22284 22286 1 120.0200517 532.790560
22285 22284 22286 1 119.8800511 375.723200
22284 22286 22287 1 119.8800511 375.723200
22284 22286 22288 1 120.0200517 532.790560
22287 22286 22288 1 119.8800511 375.723200
22279 22288 22286 1 120.0200517 532.790560
22279 22288 22289 1 119.8800511 375.723200
22286 22288 22289 1 119.8800511 375.723200
22290 22291 22292 1 119.8800511 375.723200
22290 22291 22300 1 119.8800511 375.723200
22292 22291 22300 1 120.0200517 532.790560
22291 22292 22293 1 121.3800518 83.010560
22291 22292 22294 1 120.0200517 532.790560
22293 22292 22294 1 121.3800518 83.010560
6648 22293 6649 1 109.50000 418.400000
6648 22293 6650 1 109.50000 418.400000
6648 22293 22292 1 103.70004 836.800000
6649 22293 6650 1 109.50000 418.400000
6649 22293 22292 1 103.70004 836.800000
6650 22293 22292 1 103.70004 836.800000
22292 22294 22295 1 119.8800511 375.723200
22292 22294 22296 1 120.0200517 532.790560
22295 22294 22296 1 119.8800511 375.723200
22294 22296 22297 1 119.8800511 375.723200
22294 22296 22298 1 120.0200517 532.790560
22297 22296 22298 1 119.8800511 375.723200
22296 22298 22299 1 119.8800511 375.723200
22296 22298 22300 1 120.0200517 532.790560
22299 22298 22300 1 119.8800511 375.723200
22291 22300 22298 1 120.0200517 532.790560
22291 22300 22301 1 119.8800511 375.723200
22298 22300 22301 1 119.8800511 375.723200
22302 22303 22304 1 119.8800511 375.723200
22302 22303 22312 1 119.8800511 375.723200
22304 22303 22312 1 120.0200517 532.790560
22303 22304 22305 1 121.3800518 83.010560
22303 22304 22306 1 120.0200517 532.790560
22305 22304 22306 1 121.3800518 83.010560
6721 22305 6722 1 109.50000 418.400000
6721 22305 6723 1 109.50000 418.400000
6721 22305 22304 1 103.70004 836.800000
6722 22305 6723 1 109.50000 418.400000
6722 22305 22304 1 103.70004 836.800000
6723 22305 22304 1 103.70004 836.800000
22304 22306 22307 1 119.8800511 375.723200
22304 22306 22308 1 120.0200517 532.790560
22307 22306 22308 1 119.8800511 375.723200
22306 22308 22309 1 119.8800511 375.723200
22306 22308 22310 1 120.0200517 532.790560
22309 22308 22310 1 119.8800511 375.723200
22308 22310 22311 1 119.8800511 375.723200
22308 22310 22312 1 120.0200517 532.790560
22311 22310 22312 1 119.8800511 375.723200
22303 22312 22310 1 120.0200517 532.790560
22303 22312 22313 1 119.8800511 375.723200
22310 22312 22313 1 119.8800511 375.723200
22314 22315 22316 1 119.8800511 375.723200
22314 22315 22324 1 119.8800511 375.723200
22316 22315 22324 1 120.0200517 532.790560
22315 22316 22317 1 121.3800518 83.010560
22315 22316 22318 1 120.0200517 532.790560
22317 22316 22318 1 121.3800518 83.010560
5582 22317 6741 1 109.50000 418.400000
5582 22317 6742 1 109.50000 418.400000
5582 22317 22316 1 103.70004 836.800000
6741 22317 6742 1 109.50000 418.400000
6741 22317 22316 1 103.70004 836.800000
6742 22317 22316 1 103.70004 836.800000
22316 22318 22319 1 119.8800511 375.723200
22316 22318 22320 1 120.0200517 532.790560
22319 22318 22320 1 119.8800511 375.723200
22318 22320 22321 1 119.8800511 375.723200
22318 22320 22322 1 120.0200517 532.790560
22321 22320 22322 1 119.8800511 375.723200
22320 22322 22323 1 119.8800511 375.723200
22320 22322 22324 1 120.0200517 532.790560
22323 22322 22324 1 119.8800511 375.723200
22315 22324 22322 1 120.0200517 532.790560
22315 22324 22325 1 119.8800511 375.723200
22322 22324 22325 1 119.8800511 375.723200
22326 22327 22328 1 119.8800511 375.723200
22326 22327 22336 1 119.8800511 375.723200
22328 22327 22336 1 120.0200517 532.790560
22327 22328 22329 1 121.3800518 83.010560
22327 22328 22330 1 120.0200517 532.790560
22329 22328 22330 1 121.3800518 83.010560
815 22329 6756 1 109.50000 418.400000
815 22329 6757 1 109.50000 418.400000
815 22329 22328 1 103.70004 836.800000
6756 22329 6757 1 109.50000 418.400000
6756 22329 22328 1 103.70004 836.800000
6757 22329 22328 1 103.70004 836.800000
22328 22330 22331 1 119.8800511 375.723200
22328 22330 22332 1 120.0200517 532.790560
22331 22330 22332 1 119.8800511 375.723200
22330 22332 22333 1 119.8800511 375.723200
22330 22332 22334 1 120.0200517 532.790560
22333 22332 22334 1 119.8800511 375.723200
22332 22334 22335 1 119.8800511 375.723200
22332 22334 22336 1 120.0200517 532.790560
22335 22334 22336 1 119.8800511 375.723200
22327 22336 22334 1 120.0200517 532.790560
22327 22336 22337 1 119.8800511 375.723200
22334 22336 22337 1 119.8800511 375.723200
22338 22339 22340 1 119.8800511 375.723200
22338 22339 22348 1 119.8800511 375.723200
22340 22339 22348 1 120.0200517 532.790560
22339 22340 22341 1 121.3800518 83.010560
22339 22340 22342 1 120.0200517 532.790560
22341 22340 22342 1 121.3800518 83.010560
30 22341 3779 1 109.50000 418.400000
30 22341 5714 1 109.50000 418.400000
30 22341 22340 1 103.70004 836.800000
3779 22341 5714 1 109.50000 418.400000
3779 22341 22340 1 103.70004 836.800000
5714 22341 22340 1 103.70004 836.800000
22340 22342 22343 1 119.8800511 375.723200
22340 22342 22344 1 120.0200517 532.790560
22343 22342 22344 1 119.8800511 375.723200
22342 22344 22345 1 119.8800511 375.723200
22342 22344 22346 1 120.0200517 532.790560
22345 22344 22346 1 119.8800511 375.723200
22344 22346 22347 1 119.8800511 375.723200
22344 22346 22348 1 120.0200517 532.790560
22347 22346 22348 1 119.8800511 375.723200
22339 22348 22346 1 120.0200517 532.790560
22339 22348 22349 1 119.8800511 375.723200
22346 22348 22349 1 119.8800511 375.723200
22350 22351 22352 1 119.8800511 375.723200
22350 22351 22360 1 119.8800511 375.723200
22352 22351 22360 1 120.0200517 532.790560
22351 22352 22353 1 121.3800518 83.010560
22351 22352 22354 1 120.0200517 532.790560
22353 22352 22354 1 121.3800518 83.010560
1958 22353 6823 1 109.50000 418.400000
1958 22353 6824 1 109.50000 418.400000
1958 22353 22352 1 103.70004 836.800000
6823 22353 6824 1 109.50000 418.400000
6823 22353 22352 1 103.70004 836.800000
6824 22353 22352 1 103.70004 836.800000
22352 22354 22355 1 119.8800511 375.723200
22352 22354 22356 1 120.0200517 532.790560
22355 22354 22356 1 119.8800511 375.723200
22354 22356 22357 1 119.8800511 375.723200
22354 22356 22358 1 120.0200517 532.790560
22357 22356 22358 1 119.8800511 375.723200
22356 22358 22359 1 119.8800511 375.723200
22356 22358 22360 1 120.0200517 532.790560
22359 22358 22360 1 119.8800511 375.723200
22351 22360 22358 1 120.0200517 532.790560
22351 22360 22361 1 119.8800511 375.723200
22358 22360 22361 1 119.8800511 375.723200
22362 22363 22364 1 119.8800511 375.723200
22362 22363 22372 1 119.8800511 375.723200
22364 22363 22372 1 120.0200517 532.790560
22363 22364 22365 1 121.3800518 83.010560
22363 22364 22366 1 120.0200517 532.790560
22365 22364 22366 1 121.3800518 83.010560
3419 22365 6899 1 109.50000 418.400000
3419 22365 6900 1 109.50000 418.400000
3419 22365 22364 1 103.70004 836.800000
6899 22365 6900 1 109.50000 418.400000
6899 22365 22364 1 103.70004 836.800000
6900 22365 22364 1 103.70004 836.800000
22364 22366 22367 1 119.8800511 375.723200
22364 22366 22368 1 120.0200517 532.790560
22367 22366 22368 1 119.8800511 375.723200
22366 22368 22369 1 119.8800511 375.723200
22366 22368 22370 1 120.0200517 532.790560
22369 22368 22370 1 119.8800511 375.723200
22368 22370 22371 1 119.8800511 375.723200
22368 22370 22372 1 120.0200517 532.790560
22371 22370 22372 1 119.8800511 375.723200
22363 22372 22370 1 120.0200517 532.790560
22363 22372 22373 1 119.8800511 375.723200
22370 22372 22373 1 119.8800511 375.723200
22374 22375 22376 1 119.8800511 375.723200
22374 22375 22384 1 119.8800511 375.723200
22376 22375 22384 1 120.0200517 532.790560
22375 22376 22377 1 121.3800518 83.010560
22375 22376 22378 1 120.0200517 532.790560
22377 22376 22378 1 121.3800518 83.010560
2015 22377 6916 1 109.50000 418.400000
2015 22377 6917 1 109.50000 418.400000
2015 22377 22376 1 103.70004 836.800000
6916 22377 6917 1 109.50000 418.400000
6916 22377 22376 1 103.70004 836.800000
6917 22377 22376 1 103.70004 836.800000
22376 22378 22379 1 119.8800511 375.723200
22376 22378 22380 1 120.0200517 532.790560
22379 22378 22380 1 119.8800511 375.723200
22378 22380 22381 1 119.8800511 375.723200
22378 22380 22382 1 120.0200517 532.790560
22381 22380 22382 1 119.8800511 375.723200
22380 22382 22383 1 119.8800511 375.723200
22380 22382 22384 1 120.0200517 532.790560
22383 22382 22384 1 119.8800511 375.723200
22375 22384 22382 1 120.0200517 532.790560
22375 22384 22385 1 119.8800511 375.723200
22382 22384 22385 1 119.8800511 375.723200
22386 22387 22388 1 119.8800511 375.723200
22386 22387 22396 1 119.8800511 375.723200
22388 22387 22396 1 120.0200517 532.790560
22387 22388 22389 1 121.3800518 83.010560
22387 22388 22390 1 120.0200517 532.790560
22389 22388 22390 1 121.3800518 83.010560
2952 22389 6931 1 109.50000 418.400000
2952 22389 6932 1 109.50000 418.400000
2952 22389 22388 1 103.70004 836.800000
6931 22389 6932 1 109.50000 418.400000
6931 22389 22388 1 103.70004 836.800000
6932 22389 22388 1 103.70004 836.800000
22388 22390 22391 1 119.8800511 375.723200
22388 22390 22392 1 120.0200517 532.790560
22391 22390 22392 1 119.8800511 375.723200
22390 22392 22393 1 119.8800511 375.723200
22390 22392 22394 1 120.0200517 532.790560
22393 22392 22394 1 119.8800511 375.723200
22392 22394 22395 1 119.8800511 375.723200
22392 22394 22396 1 120.0200517 532.790560
22395 22394 22396 1 119.8800511 375.723200
22387 22396 22394 1 120.0200517 532.790560
22387 22396 22397 1 119.8800511 375.723200
22394 22396 22397 1 119.8800511 375.723200
22398 22399 22400 1 119.8800511 375.723200
22398 22399 22408 1 119.8800511 375.723200
22400 22399 22408 1 120.0200517 532.790560
22399 22400 22401 1 121.3800518 83.010560
22399 22400 22402 1 120.0200517 532.790560
22401 22400 22402 1 121.3800518 83.010560
1962 22401 6950 1 109.50000 418.400000
1962 22401 10032 1 109.50000 418.400000
1962 22401 22400 1 103.70004 836.800000
6950 22401 10032 1 109.50000 418.400000
6950 22401 22400 1 103.70004 836.800000
10032 22401 22400 1 103.70004 836.800000
22400 22402 22403 1 119.8800511 375.723200
22400 22402 22404 1 120.0200517 532.790560
22403 22402 22404 1 119.8800511 375.723200
22402 22404 22405 1 119.8800511 375.723200
22402 22404 22406 1 120.0200517 532.790560
22405 22404 22406 1 119.8800511 375.723200
22404 22406 22407 1 119.8800511 375.723200
22404 22406 22408 1 120.0200517 532.790560
22407 22406 22408 1 119.8800511 375.723200
22399 22408 22406 1 120.0200517 532.790560
22399 22408 22409 1 119.8800511 375.723200
22406 22408 22409 1 119.8800511 375.723200
22410 22411 22412 1 119.8800511 375.723200
22410 22411 22420 1 119.8800511 375.723200
22412 22411 22420 1 120.0200517 532.790560
22411 22412 22413 1 121.3800518 83.010560
22411 22412 22414 1 120.0200517 532.790560
22413 22412 22414 1 121.3800518 83.010560
4433 22413 5666 1 109.50000 418.400000
4433 22413 6961 1 109.50000 418.400000
4433 22413 22412 1 103.70004 836.800000
5666 22413 6961 1 109.50000 418.400000
5666 22413 22412 1 103.70004 836.800000
6961 22413 22412 1 103.70004 836.800000
22412 22414 22415 1 119.8800511 375.723200
22412 22414 22416 1 120.0200517 532.790560
22415 22414 22416 1 119.8800511 375.723200
22414 22416 22417 1 119.8800511 375.723200
22414 22416 22418 1 120.0200517 532.790560
22417 22416 22418 1 119.8800511 375.723200
22416 22418 22419 1 119.8800511 375.723200
22416 22418 22420 1 120.0200517 532.790560
22419 22418 22420 1 119.8800511 375.723200
22411 22420 22418 1 120.0200517 532.790560
22411 22420 22421 1 119.8800511 375.723200
22418 22420 22421 1 119.8800511 375.723200
22422 22423 22424 1 119.8800511 375.723200
22422 22423 22432 1 119.8800511 375.723200
22424 22423 22432 1 120.0200517 532.790560
22423 22424 22425 1 121.3800518 83.010560
22423 22424 22426 1 120.0200517 532.790560
22425 22424 22426 1 121.3800518 83.010560
2240 22425 6978 1 109.50000 418.400000
2240 22425 11151 1 109.50000 418.400000
2240 22425 22424 1 103.70004 836.800000
6978 22425 11151 1 109.50000 418.400000
6978 22425 22424 1 103.70004 836.800000
11151 22425 22424 1 103.70004 836.800000
22424 22426 22427 1 119.8800511 375.723200
22424 22426 22428 1 120.0200517 532.790560
22427 22426 22428 1 119.8800511 375.723200
22426 22428 22429 1 119.8800511 375.723200
22426 22428 22430 1 120.0200517 532.790560
22429 22428 22430 1 119.8800511 375.723200
22428 22430 22431 1 119.8800511 375.723200
22428 22430 22432 1 120.0200517 532.790560
22431 22430 22432 1 119.8800511 375.723200
22423 22432 22430 1 120.0200517 532.790560
22423 22432 22433 1 119.8800511 375.723200
22430 22432 22433 1 119.8800511 375.723200
22434 22435 22436 1 119.8800511 375.723200
22434 22435 22444 1 119.8800511 375.723200
22436 22435 22444 1 120.0200517 532.790560
22435 22436 22437 1 121.3800518 83.010560
22435 22436 22438 1 120.0200517 532.790560
22437 22436 22438 1 121.3800518 83.010560
3492 22437 3493 1 109.50000 418.400000
3492 22437 7714 1 109.50000 418.400000
3492 22437 22436 1 103.70004 836.800000
3493 22437 7714 1 109.50000 418.400000
3493 22437 22436 1 103.70004 836.800000
7714 22437 22436 1 103.70004 836.800000
22436 22438 22439 1 119.8800511 375.723200
22436 22438 22440 1 120.0200517 532.790560
22439 22438 22440 1 119.8800511 375.723200
22438 22440 22441 1 119.8800511 375.723200
22438 22440 22442 1 120.0200517 532.790560
22441 22440 22442 1 119.8800511 375.723200
22440 22442 22443 1 119.8800511 375.723200
22440 22442 22444 1 120.0200517 532.790560
22443 22442 22444 1 119.8800511 375.723200
22435 22444 22442 1 120.0200517 532.790560
22435 22444 22445 1 119.8800511 375.723200
22442 22444 22445 1 119.8800511 375.723200
22446 22447 22448 1 119.8800511 375.723200
22446 22447 22456 1 119.8800511 375.723200
22448 22447 22456 1 120.0200517 532.790560
22447 22448 22449 1 121.3800518 83.010560
22447 22448 22450 1 120.0200517 532.790560
22449 22448 22450 1 121.3800518 83.010560
2043 22449 4814 1 109.50000 418.400000
2043 22449 7001 1 109.50000 418.400000
2043 22449 22448 1 103.70004 836.800000
4814 22449 7001 1 109.50000 418.400000
4814 22449 22448 1 103.70004 836.800000
7001 22449 22448 1 103.70004 836.800000
22448 22450 22451 1 119.8800511 375.723200
22448 22450 22452 1 120.0200517 532.790560
22451 22450 22452 1 119.8800511 375.723200
22450 22452 22453 1 119.8800511 375.723200
22450 22452 22454 1 120.0200517 532.790560
22453 22452 22454 1 119.8800511 375.723200
22452 22454 22455 1 119.8800511 375.723200
22452 22454 22456 1 120.0200517 532.790560
22455 22454 22456 1 119.8800511 375.723200
22447 22456 22454 1 120.0200517 532.790560
22447 22456 22457 1 119.8800511 375.723200
22454 22456 22457 1 119.8800511 375.723200
22458 22459 22460 1 119.8800511 375.723200
22458 22459 22468 1 119.8800511 375.723200
22460 22459 22468 1 120.0200517 532.790560
22459 22460 22461 1 121.3800518 83.010560
22459 22460 22462 1 120.0200517 532.790560
22461 22460 22462 1 121.3800518 83.010560
5975 22461 7019 1 109.50000 418.400000
5975 22461 7020 1 109.50000 418.400000
5975 22461 22460 1 103.70004 836.800000
7019 22461 7020 1 109.50000 418.400000
7019 22461 22460 1 103.70004 836.800000
7020 22461 22460 1 103.70004 836.800000
22460 22462 22463 1 119.8800511 375.723200
22460 22462 22464 1 120.0200517 532.790560
22463 22462 22464 1 119.8800511 375.723200
22462 22464 22465 1 119.8800511 375.723200
22462 22464 22466 1 120.0200517 532.790560
22465 22464 22466 1 119.8800511 375.723200
22464 22466 22467 1 119.8800511 375.723200
22464 22466 22468 1 120.0200517 532.790560
22467 22466 22468 1 119.8800511 375.723200
22459 22468 22466 1 120.0200517 532.790560
22459 22468 22469 1 119.8800511 375.723200
22466 22468 22469 1 119.8800511 375.723200
22470 22471 22472 1 119.8800511 375.723200
22470 22471 22480 1 119.8800511 375.723200
22472 22471 22480 1 120.0200517 532.790560
22471 22472 22473 1 121.3800518 83.010560
22471 22472 22474 1 120.0200517 532.790560
22473 22472 22474 1 121.3800518 83.010560
5093 22473 5322 1 109.50000 418.400000
5093 22473 7052 1 109.50000 418.400000
5093 22473 22472 1 103.70004 836.800000
5322 22473 7052 1 109.50000 418.400000
5322 22473 22472 1 103.70004 836.800000
7052 22473 22472 1 103.70004 836.800000
22472 22474 22475 1 119.8800511 375.723200
22472 22474 22476 1 120.0200517 532.790560
22475 22474 22476 1 119.8800511 375.723200
22474 22476 22477 1 119.8800511 375.723200
22474 22476 22478 1 120.0200517 532.790560
22477 22476 22478 1 119.8800511 375.723200
22476 22478 22479 1 119.8800511 375.723200
22476 22478 22480 1 120.0200517 532.790560
22479 22478 22480 1 119.8800511 375.723200
22471 22480 22478 1 120.0200517 532.790560
22471 22480 22481 1 119.8800511 375.723200
22478 22480 22481 1 119.8800511 375.723200
22482 22483 22484 1 119.8800511 375.723200
22482 22483 22492 1 119.8800511 375.723200
22484 22483 22492 1 120.0200517 532.790560
22483 22484 22485 1 121.3800518 83.010560
22483 22484 22486 1 120.0200517 532.790560
22485 22484 22486 1 121.3800518 83.010560
4938 22485 5866 1 109.50000 418.400000
4938 22485 7098 1 109.50000 418.400000
4938 22485 22484 1 103.70004 836.800000
5866 22485 7098 1 109.50000 418.400000
5866 22485 22484 1 103.70004 836.800000
7098 22485 22484 1 103.70004 836.800000
22484 22486 22487 1 119.8800511 375.723200
22484 22486 22488 1 120.0200517 532.790560
22487 22486 22488 1 119.8800511 375.723200
22486 22488 22489 1 119.8800511 375.723200
22486 22488 22490 1 120.0200517 532.790560
22489 22488 22490 1 119.8800511 375.723200
22488 22490 22491 1 119.8800511 375.723200
22488 22490 22492 1 120.0200517 532.790560
22491 22490 22492 1 119.8800511 375.723200
22483 22492 22490 1 120.0200517 532.790560
22483 22492 22493 1 119.8800511 375.723200
22490 22492 22493 1 119.8800511 375.723200
22494 22495 22496 1 119.8800511 375.723200
22494 22495 22504 1 119.8800511 375.723200
22496 22495 22504 1 120.0200517 532.790560
22495 22496 22497 1 121.3800518 83.010560
22495 22496 22498 1 120.0200517 532.790560
22497 22496 22498 1 121.3800518 83.010560
7112 22497 7113 1 109.50000 418.400000
7112 22497 7114 1 109.50000 418.400000
7112 22497 22496 1 103.70004 836.800000
7113 22497 7114 1 109.50000 418.400000
7113 22497 22496 1 103.70004 836.800000
7114 22497 22496 1 103.70004 836.800000
22496 22498 22499 1 119.8800511 375.723200
22496 22498 22500 1 120.0200517 532.790560
22499 22498 22500 1 119.8800511 375.723200
22498 22500 22501 1 119.8800511 375.723200
22498 22500 22502 1 120.0200517 532.790560
22501 22500 22502 1 119.8800511 375.723200
22500 22502 22503 1 119.8800511 375.723200
22500 22502 22504 1 120.0200517 532.790560
22503 22502 22504 1 119.8800511 375.723200
22495 22504 22502 1 120.0200517 532.790560
22495 22504 22505 1 119.8800511 375.723200
22502 22504 22505 1 119.8800511 375.723200
22506 22507 22508 1 119.8800511 375.723200
22506 22507 22516 1 119.8800511 375.723200
22508 22507 22516 1 120.0200517 532.790560
22507 22508 22509 1 121.3800518 83.010560
22507 22508 22510 1 120.0200517 532.790560
22509 22508 22510 1 121.3800518 83.010560
4514 22509 4576 1 109.50000 418.400000
4514 22509 11143 1 109.50000 418.400000
4514 22509 22508 1 103.70004 836.800000
4576 22509 11143 1 109.50000 418.400000
4576 22509 22508 1 103.70004 836.800000
11143 22509 22508 1 103.70004 836.800000
22508 22510 22511 1 119.8800511 375.723200
22508 22510 22512 1 120.0200517 532.790560
22511 22510 22512 1 119.8800511 375.723200
22510 22512 22513 1 119.8800511 375.723200
22510 22512 22514 1 120.0200517 532.790560
22513 22512 22514 1 119.8800511 375.723200
22512 22514 22515 1 119.8800511 375.723200
22512 22514 22516 1 120.0200517 532.790560
22515 22514 22516 1 119.8800511 375.723200
22507 22516 22514 1 120.0200517 532.790560
22507 22516 22517 1 119.8800511 375.723200
22514 22516 22517 1 119.8800511 375.723200
22518 22519 22520 1 119.8800511 375.723200
22518 22519 22528 1 119.8800511 375.723200
22520 22519 22528 1 120.0200517 532.790560
22519 22520 22521 1 121.3800518 83.010560
22519 22520 22522 1 120.0200517 532.790560
22521 22520 22522 1 121.3800518 83.010560
5039 22521 7141 1 109.50000 418.400000
5039 22521 7142 1 109.50000 418.400000
5039 22521 22520 1 103.70004 836.800000
7141 22521 7142 1 109.50000 418.400000
7141 22521 22520 1 103.70004 836.800000
7142 22521 22520 1 103.70004 836.800000
22520 22522 22523 1 119.8800511 375.723200
22520 22522 22524 1 120.0200517 532.790560
22523 22522 22524 1 119.8800511 375.723200
22522 22524 22525 1 119.8800511 375.723200
22522 22524 22526 1 120.0200517 532.790560
22525 22524 22526 1 119.8800511 375.723200
22524 22526 22527 1 119.8800511 375.723200
22524 22526 22528 1 120.0200517 532.790560
22527 22526 22528 1 119.8800511 375.723200
22519 22528 22526 1 120.0200517 532.790560
22519 22528 22529 1 119.8800511 375.723200
22526 22528 22529 1 119.8800511 375.723200
22530 22531 22532 1 119.8800511 375.723200
22530 22531 22540 1 119.8800511 375.723200
22532 22531 22540 1 120.0200517 532.790560
22531 22532 22533 1 121.3800518 83.010560
22531 22532 22534 1 120.0200517 532.790560
22533 22532 22534 1 121.3800518 83.010560
4870 22533 7153 1 109.50000 418.400000
4870 22533 7154 1 109.50000 418.400000
4870 22533 22532 1 103.70004 836.800000
7153 22533 7154 1 109.50000 418.400000
7153 22533 22532 1 103.70004 836.800000
7154 22533 22532 1 103.70004 836.800000
22532 22534 22535 1 119.8800511 375.723200
22532 22534 22536 1 120.0200517 532.790560
22535 22534 22536 1 119.8800511 375.723200
22534 22536 22537 1 119.8800511 375.723200
22534 22536 22538 1 120.0200517 532.790560
22537 22536 22538 1 119.8800511 375.723200
22536 22538 22539 1 119.8800511 375.723200
22536 22538 22540 1 120.0200517 532.790560
22539 22538 22540 1 119.8800511 375.723200
22531 22540 22538 1 120.0200517 532.790560
22531 22540 22541 1 119.8800511 375.723200
22538 22540 22541 1 119.8800511 375.723200
22542 22543 22544 1 119.8800511 375.723200
22542 22543 22552 1 119.8800511 375.723200
22544 22543 22552 1 120.0200517 532.790560
22543 22544 22545 1 121.3800518 83.010560
22543 22544 22546 1 120.0200517 532.790560
22545 22544 22546 1 121.3800518 83.010560
7168 22545 7169 1 109.50000 418.400000
7168 22545 7170 1 109.50000 418.400000
7168 22545 22544 1 103.70004 836.800000
7169 22545 7170 1 109.50000 418.400000
7169 22545 22544 1 103.70004 836.800000
7170 22545 22544 1 103.70004 836.800000
22544 22546 22547 1 119.8800511 375.723200
22544 22546 22548 1 120.0200517 532.790560
22547 22546 22548 1 119.8800511 375.723200
22546 22548 22549 1 119.8800511 375.723200
22546 22548 22550 1 120.0200517 532.790560
22549 22548 22550 1 119.8800511 375.723200
22548 22550 22551 1 119.8800511 375.723200
22548 22550 22552 1 120.0200517 532.790560
22551 22550 22552 1 119.8800511 375.723200
22543 22552 22550 1 120.0200517 532.790560
22543 22552 22553 1 119.8800511 375.723200
22550 22552 22553 1 119.8800511 375.723200
22554 22555 22556 1 119.8800511 375.723200
22554 22555 22564 1 119.8800511 375.723200
22556 22555 22564 1 120.0200517 532.790560
22555 22556 22557 1 121.3800518 83.010560
22555 22556 22558 1 120.0200517 532.790560
22557 22556 22558 1 121.3800518 83.010560
5961 22557 7194 1 109.50000 418.400000
5961 22557 7195 1 109.50000 418.400000
5961 22557 22556 1 103.70004 836.800000
7194 22557 7195 1 109.50000 418.400000
7194 22557 22556 1 103.70004 836.800000
7195 22557 22556 1 103.70004 836.800000
22556 22558 22559 1 119.8800511 375.723200
22556 22558 22560 1 120.0200517 532.790560
22559 22558 22560 1 119.8800511 375.723200
22558 22560 22561 1 119.8800511 375.723200
22558 22560 22562 1 120.0200517 532.790560
22561 22560 22562 1 119.8800511 375.723200
22560 22562 22563 1 119.8800511 375.723200
22560 22562 22564 1 120.0200517 532.790560
22563 22562 22564 1 119.8800511 375.723200
22555 22564 22562 1 120.0200517 532.790560
22555 22564 22565 1 119.8800511 375.723200
22562 22564 22565 1 119.8800511 375.723200
22566 22567 22568 1 119.8800511 375.723200
22566 22567 22576 1 119.8800511 375.723200
22568 22567 22576 1 120.0200517 532.790560
22567 22568 22569 1 121.3800518 83.010560
22567 22568 22570 1 120.0200517 532.790560
22569 22568 22570 1 121.3800518 83.010560
1291 22569 1684 1 109.50000 418.400000
1291 22569 7198 1 109.50000 418.400000
1291 22569 22568 1 103.70004 836.800000
1684 22569 7198 1 109.50000 418.400000
1684 22569 22568 1 103.70004 836.800000
7198 22569 22568 1 103.70004 836.800000
22568 22570 22571 1 119.8800511 375.723200
22568 22570 22572 1 120.0200517 532.790560
22571 22570 22572 1 119.8800511 375.723200
22570 22572 22573 1 119.8800511 375.723200
22570 22572 22574 1 120.0200517 532.790560
22573 22572 22574 1 119.8800511 375.723200
22572 22574 22575 1 119.8800511 375.723200
22572 22574 22576 1 120.0200517 532.790560
22575 22574 22576 1 119.8800511 375.723200
22567 22576 22574 1 120.0200517 532.790560
22567 22576 22577 1 119.8800511 375.723200
22574 22576 22577 1 119.8800511 375.723200
22578 22579 22580 1 119.8800511 375.723200
22578 22579 22588 1 119.8800511 375.723200
22580 22579 22588 1 120.0200517 532.790560
22579 22580 22581 1 121.3800518 83.010560
22579 22580 22582 1 120.0200517 532.790560
22581 22580 22582 1 121.3800518 83.010560
4455 22581 5146 1 109.50000 418.400000
4455 22581 7217 1 109.50000 418.400000
4455 22581 22580 1 103.70004 836.800000
5146 22581 7217 1 109.50000 418.400000
5146 22581 22580 1 103.70004 836.800000
7217 22581 22580 1 103.70004 836.800000
22580 22582 22583 1 119.8800511 375.723200
22580 22582 22584 1 120.0200517 532.790560
22583 22582 22584 1 119.8800511 375.723200
22582 22584 22585 1 119.8800511 375.723200
22582 22584 22586 1 120.0200517 532.790560
22585 22584 22586 1 119.8800511 375.723200
22584 22586 22587 1 119.8800511 375.723200
22584 22586 22588 1 120.0200517 532.790560
22587 22586 22588 1 119.8800511 375.723200
22579 22588 22586 1 120.0200517 532.790560
22579 22588 22589 1 119.8800511 375.723200
22586 22588 22589 1 119.8800511 375.723200
22590 22591 22592 1 119.8800511 375.723200
22590 22591 22600 1 119.8800511 375.723200
22592 22591 22600 1 120.0200517 532.790560
22591 22592 22593 1 121.3800518 83.010560
22591 22592 22594 1 120.0200517 532.790560
22593 22592 22594 1 121.3800518 83.010560
1171 22593 7222 1 109.50000 418.400000
1171 22593 7223 1 109.50000 418.400000
1171 22593 22592 1 103.70004 836.800000
7222 22593 7223 1 109.50000 418.400000
7222 22593 22592 1 103.70004 836.800000
7223 22593 22592 1 103.70004 836.800000
22592 22594 22595 1 119.8800511 375.723200
22592 22594 22596 1 120.0200517 532.790560
22595 22594 22596 1 119.8800511 375.723200
22594 22596 22597 1 119.8800511 375.723200
22594 22596 22598 1 120.0200517 532.790560
22597 22596 22598 1 119.8800511 375.723200
22596 22598 22599 1 119.8800511 375.723200
22596 22598 22600 1 120.0200517 532.790560
22599 22598 22600 1 119.8800511 375.723200
22591 22600 22598 1 120.0200517 532.790560
22591 22600 22601 1 119.8800511 375.723200
22598 22600 22601 1 119.8800511 375.723200
22602 22603 22604 1 119.8800511 375.723200
22602 22603 22612 1 119.8800511 375.723200
22604 22603 22612 1 120.0200517 532.790560
22603 22604 22605 1 121.3800518 83.010560
22603 22604 22606 1 120.0200517 532.790560
22605 22604 22606 1 121.3800518 83.010560
1858 22605 6427 1 109.50000 418.400000
1858 22605 7257 1 109.50000 418.400000
1858 22605 22604 1 103.70004 836.800000
6427 22605 7257 1 109.50000 418.400000
6427 22605 22604 1 103.70004 836.800000
7257 22605 22604 1 103.70004 836.800000
22604 22606 22607 1 119.8800511 375.723200
22604 22606 22608 1 120.0200517 532.790560
22607 22606 22608 1 119.8800511 375.723200
22606 22608 22609 1 119.8800511 375.723200
22606 22608 22610 1 120.0200517 532.790560
22609 22608 22610 1 119.8800511 375.723200
22608 22610 22611 1 119.8800511 375.723200
22608 22610 22612 1 120.0200517 532.790560
22611 22610 22612 1 119.8800511 375.723200
22603 22612 22610 1 120.0200517 532.790560
22603 22612 22613 1 119.8800511 375.723200
22610 22612 22613 1 119.8800511 375.723200
22614 22615 22616 1 119.8800511 375.723200
22614 22615 22624 1 119.8800511 375.723200
22616 22615 22624 1 120.0200517 532.790560
22615 22616 22617 1 121.3800518 83.010560
22615 22616 22618 1 120.0200517 532.790560
22617 22616 22618 1 121.3800518 83.010560
868 22617 3372 1 109.50000 418.400000
868 22617 7268 1 109.50000 418.400000
868 22617 22616 1 103.70004 836.800000
3372 22617 7268 1 109.50000 418.400000
3372 22617 22616 1 103.70004 836.800000
7268 22617 22616 1 103.70004 836.800000
22616 22618 22619 1 119.8800511 375.723200
22616 22618 22620 1 120.0200517 532.790560
22619 22618 22620 1 119.8800511 375.723200
22618 22620 22621 1 119.8800511 375.723200
22618 22620 22622 1 120.0200517 532.790560
22621 22620 22622 1 119.8800511 375.723200
22620 22622 22623 1 119.8800511 375.723200
22620 22622 22624 1 120.0200517 532.790560
22623 22622 22624 1 119.8800511 375.723200
22615 22624 22622 1 120.0200517 532.790560
22615 22624 22625 1 119.8800511 375.723200
22622 22624 22625 1 119.8800511 375.723200
22626 22627 22628 1 119.8800511 375.723200
22626 22627 22636 1 119.8800511 375.723200
22628 22627 22636 1 120.0200517 532.790560
22627 22628 22629 1 121.3800518 83.010560
22627 22628 22630 1 120.0200517 532.790560
22629 22628 22630 1 121.3800518 83.010560
1110 22629 2651 1 109.50000 418.400000
1110 22629 2690 1 109.50000 418.400000
1110 22629 22628 1 103.70004 836.800000
2651 22629 2690 1 109.50000 418.400000
2651 22629 22628 1 103.70004 836.800000
2690 22629 22628 1 103.70004 836.800000
22628 22630 22631 1 119.8800511 375.723200
22628 22630 22632 1 120.0200517 532.790560
22631 22630 22632 1 119.8800511 375.723200
22630 22632 22633 1 119.8800511 375.723200
22630 22632 22634 1 120.0200517 532.790560
22633 22632 22634 1 119.8800511 375.723200
22632 22634 22635 1 119.8800511 375.723200
22632 22634 22636 1 120.0200517 532.790560
22635 22634 22636 1 119.8800511 375.723200
22627 22636 22634 1 120.0200517 532.790560
22627 22636 22637 1 119.8800511 375.723200
22634 22636 22637 1 119.8800511 375.723200
22638 22639 22640 1 119.8800511 375.723200
22638 22639 22648 1 119.8800511 375.723200
22640 22639 22648 1 120.0200517 532.790560
22639 22640 22641 1 121.3800518 83.010560
22639 22640 22642 1 120.0200517 532.790560
22641 22640 22642 1 121.3800518 83.010560
744 22641 3519 1 109.50000 418.400000
744 22641 7369 1 109.50000 418.400000
744 22641 22640 1 103.70004 836.800000
3519 22641 7369 1 109.50000 418.400000
3519 22641 22640 1 103.70004 836.800000
7369 22641 22640 1 103.70004 836.800000
22640 22642 22643 1 119.8800511 375.723200
22640 22642 22644 1 120.0200517 532.790560
22643 22642 22644 1 119.8800511 375.723200
22642 22644 22645 1 119.8800511 375.723200
22642 22644 22646 1 120.0200517 532.790560
22645 22644 22646 1 119.8800511 375.723200
22644 22646 22647 1 119.8800511 375.723200
22644 22646 22648 1 120.0200517 532.790560
22647 22646 22648 1 119.8800511 375.723200
22639 22648 22646 1 120.0200517 532.790560
22639 22648 22649 1 119.8800511 375.723200
22646 22648 22649 1 119.8800511 375.723200
22650 22651 22652 1 119.8800511 375.723200
22650 22651 22660 1 119.8800511 375.723200
22652 22651 22660 1 120.0200517 532.790560
22651 22652 22653 1 121.3800518 83.010560
22651 22652 22654 1 120.0200517 532.790560
22653 22652 22654 1 121.3800518 83.010560
3148 22653 7375 1 109.50000 418.400000
3148 22653 7376 1 109.50000 418.400000
3148 22653 22652 1 103.70004 836.800000
7375 22653 7376 1 109.50000 418.400000
7375 22653 22652 1 103.70004 836.800000
7376 22653 22652 1 103.70004 836.800000
22652 22654 22655 1 119.8800511 375.723200
22652 22654 22656 1 120.0200517 532.790560
22655 22654 22656 1 119.8800511 375.723200
22654 22656 22657 1 119.8800511 375.723200
22654 22656 22658 1 120.0200517 532.790560
22657 22656 22658 1 119.8800511 375.723200
22656 22658 22659 1 119.8800511 375.723200
22656 22658 22660 1 120.0200517 532.790560
22659 22658 22660 1 119.8800511 375.723200
22651 22660 22658 1 120.0200517 532.790560
22651 22660 22661 1 119.8800511 375.723200
22658 22660 22661 1 119.8800511 375.723200
22662 22663 22664 1 119.8800511 375.723200
22662 22663 22672 1 119.8800511 375.723200
22664 22663 22672 1 120.0200517 532.790560
22663 22664 22665 1 121.3800518 83.010560
22663 22664 22666 1 120.0200517 532.790560
22665 22664 22666 1 121.3800518 83.010560
2432 22665 2433 1 109.50000 418.400000
2432 22665 11156 1 109.50000 418.400000
2432 22665 22664 1 103.70004 836.800000
2433 22665 11156 1 109.50000 418.400000
2433 22665 22664 1 103.70004 836.800000
11156 22665 22664 1 103.70004 836.800000
22664 22666 22667 1 119.8800511 375.723200
22664 22666 22668 1 120.0200517 532.790560
22667 22666 22668 1 119.8800511 375.723200
22666 22668 22669 1 119.8800511 375.723200
22666 22668 22670 1 120.0200517 532.790560
22669 22668 22670 1 119.8800511 375.723200
22668 22670 22671 1 119.8800511 375.723200
22668 22670 22672 1 120.0200517 532.790560
22671 22670 22672 1 119.8800511 375.723200
22663 22672 22670 1 120.0200517 532.790560
22663 22672 22673 1 119.8800511 375.723200
22670 22672 22673 1 119.8800511 375.723200
22674 22675 22676 1 119.8800511 375.723200
22674 22675 22684 1 119.8800511 375.723200
22676 22675 22684 1 120.0200517 532.790560
22675 22676 22677 1 121.3800518 83.010560
22675 22676 22678 1 120.0200517 532.790560
22677 22676 22678 1 121.3800518 83.010560
1476 22677 4692 1 109.50000 418.400000
1476 22677 7472 1 109.50000 418.400000
1476 22677 22676 1 103.70004 836.800000
4692 22677 7472 1 109.50000 418.400000
4692 22677 22676 1 103.70004 836.800000
7472 22677 22676 1 103.70004 836.800000
22676 22678 22679 1 119.8800511 375.723200
22676 22678 22680 1 120.0200517 532.790560
22679 22678 22680 1 119.8800511 375.723200
22678 22680 22681 1 119.8800511 375.723200
22678 22680 22682 1 120.0200517 532.790560
22681 22680 22682 1 119.8800511 375.723200
22680 22682 22683 1 119.8800511 375.723200
22680 22682 22684 1 120.0200517 532.790560
22683 22682 22684 1 119.8800511 375.723200
22675 22684 22682 1 120.0200517 532.790560
22675 22684 22685 1 119.8800511 375.723200
22682 22684 22685 1 119.8800511 375.723200
22686 22687 22688 1 119.8800511 375.723200
22686 22687 22696 1 119.8800511 375.723200
22688 22687 22696 1 120.0200517 532.790560
22687 22688 22689 1 121.3800518 83.010560
22687 22688 22690 1 120.0200517 532.790560
22689 22688 22690 1 121.3800518 83.010560
5288 22689 7485 1 109.50000 418.400000
5288 22689 7486 1 109.50000 418.400000
5288 22689 22688 1 103.70004 836.800000
7485 22689 7486 1 109.50000 418.400000
7485 22689 22688 1 103.70004 836.800000
7486 22689 22688 1 103.70004 836.800000
22688 22690 22691 1 119.8800511 375.723200
22688 22690 22692 1 120.0200517 532.790560
22691 22690 22692 1 119.8800511 375.723200
22690 22692 22693 1 119.8800511 375.723200
22690 22692 22694 1 120.0200517 532.790560
22693 22692 22694 1 119.8800511 375.723200
22692 22694 22695 1 119.8800511 375.723200
22692 22694 22696 1 120.0200517 532.790560
22695 22694 22696 1 119.8800511 375.723200
22687 22696 22694 1 120.0200517 532.790560
22687 22696 22697 1 119.8800511 375.723200
22694 22696 22697 1 119.8800511 375.723200
22698 22699 22700 1 119.8800511 375.723200
22698 22699 22708 1 119.8800511 375.723200
22700 22699 22708 1 120.0200517 532.790560
22699 22700 22701 1 121.3800518 83.010560
22699 22700 22702 1 120.0200517 532.790560
22701 22700 22702 1 121.3800518 83.010560
3479 22701 7341 1 109.50000 418.400000
3479 22701 7342 1 109.50000 418.400000
3479 22701 22700 1 103.70004 836.800000
7341 22701 7342 1 109.50000 418.400000
7341 22701 22700 1 103.70004 836.800000
7342 22701 22700 1 103.70004 836.800000
22700 22702 22703 1 119.8800511 375.723200
22700 22702 22704 1 120.0200517 532.790560
22703 22702 22704 1 119.8800511 375.723200
22702 22704 22705 1 119.8800511 375.723200
22702 22704 22706 1 120.0200517 532.790560
22705 22704 22706 1 119.8800511 375.723200
22704 22706 22707 1 119.8800511 375.723200
22704 22706 22708 1 120.0200517 532.790560
22707 22706 22708 1 119.8800511 375.723200
22699 22708 22706 1 120.0200517 532.790560
22699 22708 22709 1 119.8800511 375.723200
22706 22708 22709 1 119.8800511 375.723200
22710 22711 22712 1 119.8800511 375.723200
22710 22711 22720 1 119.8800511 375.723200
22712 22711 22720 1 120.0200517 532.790560
22711 22712 22713 1 121.3800518 83.010560
22711 22712 22714 1 120.0200517 532.790560
22713 22712 22714 1 121.3800518 83.010560
2746 22713 4785 1 109.50000 418.400000
2746 22713 7497 1 109.50000 418.400000
2746 22713 22712 1 103.70004 836.800000
4785 22713 7497 1 109.50000 418.400000
4785 22713 22712 1 103.70004 836.800000
7497 22713 22712 1 103.70004 836.800000
22712 22714 22715 1 119.8800511 375.723200
22712 22714 22716 1 120.0200517 532.790560
22715 22714 22716 1 119.8800511 375.723200
22714 22716 22717 1 119.8800511 375.723200
22714 22716 22718 1 120.0200517 532.790560
22717 22716 22718 1 119.8800511 375.723200
22716 22718 22719 1 119.8800511 375.723200
22716 22718 22720 1 120.0200517 532.790560
22719 22718 22720 1 119.8800511 375.723200
22711 22720 22718 1 120.0200517 532.790560
22711 22720 22721 1 119.8800511 375.723200
22718 22720 22721 1 119.8800511 375.723200
22722 22723 22724 1 119.8800511 375.723200
22722 22723 22732 1 119.8800511 375.723200
22724 22723 22732 1 120.0200517 532.790560
22723 22724 22725 1 121.3800518 83.010560
22723 22724 22726 1 120.0200517 532.790560
22725 22724 22726 1 121.3800518 83.010560
3106 22725 5095 1 109.50000 418.400000
3106 22725 5501 1 109.50000 418.400000
3106 22725 22724 1 103.70004 836.800000
5095 22725 5501 1 109.50000 418.400000
5095 22725 22724 1 103.70004 836.800000
5501 22725 22724 1 103.70004 836.800000
22724 22726 22727 1 119.8800511 375.723200
22724 22726 22728 1 120.0200517 532.790560
22727 22726 22728 1 119.8800511 375.723200
22726 22728 22729 1 119.8800511 375.723200
22726 22728 22730 1 120.0200517 532.790560
22729 22728 22730 1 119.8800511 375.723200
22728 22730 22731 1 119.8800511 375.723200
22728 22730 22732 1 120.0200517 532.790560
22731 22730 22732 1 119.8800511 375.723200
22723 22732 22730 1 120.0200517 532.790560
22723 22732 22733 1 119.8800511 375.723200
22730 22732 22733 1 119.8800511 375.723200
22734 22735 22736 1 119.8800511 375.723200
22734 22735 22744 1 119.8800511 375.723200
22736 22735 22744 1 120.0200517 532.790560
22735 22736 22737 1 121.3800518 83.010560
22735 22736 22738 1 120.0200517 532.790560
22737 22736 22738 1 121.3800518 83.010560
7624 22737 7625 1 109.50000 418.400000
7624 22737 7626 1 109.50000 418.400000
7624 22737 22736 1 103.70004 836.800000
7625 22737 7626 1 109.50000 418.400000
7625 22737 22736 1 103.70004 836.800000
7626 22737 22736 1 103.70004 836.800000
22736 22738 22739 1 119.8800511 375.723200
22736 22738 22740 1 120.0200517 532.790560
22739 22738 22740 1 119.8800511 375.723200
22738 22740 22741 1 119.8800511 375.723200
22738 22740 22742 1 120.0200517 532.790560
22741 22740 22742 1 119.8800511 375.723200
22740 22742 22743 1 119.8800511 375.723200
22740 22742 22744 1 120.0200517 532.790560
22743 22742 22744 1 119.8800511 375.723200
22735 22744 22742 1 120.0200517 532.790560
22735 22744 22745 1 119.8800511 375.723200
22742 22744 22745 1 119.8800511 375.723200
22746 22747 22748 1 119.8800511 375.723200
22746 22747 22756 1 119.8800511 375.723200
22748 22747 22756 1 120.0200517 532.790560
22747 22748 22749 1 121.3800518 83.010560
22747 22748 22750 1 120.0200517 532.790560
22749 22748 22750 1 121.3800518 83.010560
7209 22749 7627 1 109.50000 418.400000
7209 22749 7628 1 109.50000 418.400000
7209 22749 22748 1 103.70004 836.800000
7627 22749 7628 1 109.50000 418.400000
7627 22749 22748 1 103.70004 836.800000
7628 22749 22748 1 103.70004 836.800000
22748 22750 22751 1 119.8800511 375.723200
22748 22750 22752 1 120.0200517 532.790560
22751 22750 22752 1 119.8800511 375.723200
22750 22752 22753 1 119.8800511 375.723200
22750 22752 22754 1 120.0200517 532.790560
22753 22752 22754 1 119.8800511 375.723200
22752 22754 22755 1 119.8800511 375.723200
22752 22754 22756 1 120.0200517 532.790560
22755 22754 22756 1 119.8800511 375.723200
22747 22756 22754 1 120.0200517 532.790560
22747 22756 22757 1 119.8800511 375.723200
22754 22756 22757 1 119.8800511 375.723200
22758 22759 22760 1 119.8800511 375.723200
22758 22759 22768 1 119.8800511 375.723200
22760 22759 22768 1 120.0200517 532.790560
22759 22760 22761 1 121.3800518 83.010560
22759 22760 22762 1 120.0200517 532.790560
22761 22760 22762 1 121.3800518 83.010560
6574 22761 7665 1 109.50000 418.400000
6574 22761 7666 1 109.50000 418.400000
6574 22761 22760 1 103.70004 836.800000
7665 22761 7666 1 109.50000 418.400000
7665 22761 22760 1 103.70004 836.800000
7666 22761 22760 1 103.70004 836.800000
22760 22762 22763 1 119.8800511 375.723200
22760 22762 22764 1 120.0200517 532.790560
22763 22762 22764 1 119.8800511 375.723200
22762 22764 22765 1 119.8800511 375.723200
22762 22764 22766 1 120.0200517 532.790560
22765 22764 22766 1 119.8800511 375.723200
22764 22766 22767 1 119.8800511 375.723200
22764 22766 22768 1 120.0200517 532.790560
22767 22766 22768 1 119.8800511 375.723200
22759 22768 22766 1 120.0200517 532.790560
22759 22768 22769 1 119.8800511 375.723200
22766 22768 22769 1 119.8800511 375.723200
22770 22771 22772 1 119.8800511 375.723200
22770 22771 22780 1 119.8800511 375.723200
22772 22771 22780 1 120.0200517 532.790560
22771 22772 22773 1 121.3800518 83.010560
22771 22772 22774 1 120.0200517 532.790560
22773 22772 22774 1 121.3800518 83.010560
5041 22773 7687 1 109.50000 418.400000
5041 22773 7688 1 109.50000 418.400000
5041 22773 22772 1 103.70004 836.800000
7687 22773 7688 1 109.50000 418.400000
7687 22773 22772 1 103.70004 836.800000
7688 22773 22772 1 103.70004 836.800000
22772 22774 22775 1 119.8800511 375.723200
22772 22774 22776 1 120.0200517 532.790560
22775 22774 22776 1 119.8800511 375.723200
22774 22776 22777 1 119.8800511 375.723200
22774 22776 22778 1 120.0200517 532.790560
22777 22776 22778 1 119.8800511 375.723200
22776 22778 22779 1 119.8800511 375.723200
22776 22778 22780 1 120.0200517 532.790560
22779 22778 22780 1 119.8800511 375.723200
22771 22780 22778 1 120.0200517 532.790560
22771 22780 22781 1 119.8800511 375.723200
22778 22780 22781 1 119.8800511 375.723200
22782 22783 22784 1 119.8800511 375.723200
22782 22783 22792 1 119.8800511 375.723200
22784 22783 22792 1 120.0200517 532.790560
22783 22784 22785 1 121.3800518 83.010560
22783 22784 22786 1 120.0200517 532.790560
22785 22784 22786 1 121.3800518 83.010560
7711 22785 7712 1 109.50000 418.400000
7711 22785 9111 1 109.50000 418.400000
7711 22785 22784 1 103.70004 836.800000
7712 22785 9111 1 109.50000 418.400000
7712 22785 22784 1 103.70004 836.800000
9111 22785 22784 1 103.70004 836.800000
22784 22786 22787 1 119.8800511 375.723200
22784 22786 22788 1 120.0200517 532.790560
22787 22786 22788 1 119.8800511 375.723200
22786 22788 22789 1 119.8800511 375.723200
22786 22788 22790 1 120.0200517 532.790560
22789 22788 22790 1 119.8800511 375.723200
22788 22790 22791 1 119.8800511 375.723200
22788 22790 22792 1 120.0200517 532.790560
22791 22790 22792 1 119.8800511 375.723200
22783 22792 22790 1 120.0200517 532.790560
22783 22792 22793 1 119.8800511 375.723200
22790 22792 22793 1 119.8800511 375.723200
22794 22795 22796 1 119.8800511 375.723200
22794 22795 22804 1 119.8800511 375.723200
22796 22795 22804 1 120.0200517 532.790560
22795 22796 22797 1 121.3800518 83.010560
22795 22796 22798 1 120.0200517 532.790560
22797 22796 22798 1 121.3800518 83.010560
7732 22797 7733 1 109.50000 418.400000
7732 22797 7734 1 109.50000 418.400000
7732 22797 22796 1 103.70004 836.800000
7733 22797 7734 1 109.50000 418.400000
7733 22797 22796 1 103.70004 836.800000
7734 22797 22796 1 103.70004 836.800000
22796 22798 22799 1 119.8800511 375.723200
22796 22798 22800 1 120.0200517 532.790560
22799 22798 22800 1 119.8800511 375.723200
22798 22800 22801 1 119.8800511 375.723200
22798 22800 22802 1 120.0200517 532.790560
22801 22800 22802 1 119.8800511 375.723200
22800 22802 22803 1 119.8800511 375.723200
22800 22802 22804 1 120.0200517 532.790560
22803 22802 22804 1 119.8800511 375.723200
22795 22804 22802 1 120.0200517 532.790560
22795 22804 22805 1 119.8800511 375.723200
22802 22804 22805 1 119.8800511 375.723200
22806 22807 22808 1 119.8800511 375.723200
22806 22807 22816 1 119.8800511 375.723200
22808 22807 22816 1 120.0200517 532.790560
22807 22808 22809 1 121.3800518 83.010560
22807 22808 22810 1 120.0200517 532.790560
22809 22808 22810 1 121.3800518 83.010560
6364 22809 7769 1 109.50000 418.400000
6364 22809 7770 1 109.50000 418.400000
6364 22809 22808 1 103.70004 836.800000
7769 22809 7770 1 109.50000 418.400000
7769 22809 22808 1 103.70004 836.800000
7770 22809 22808 1 103.70004 836.800000
22808 22810 22811 1 119.8800511 375.723200
22808 22810 22812 1 120.0200517 532.790560
22811 22810 22812 1 119.8800511 375.723200
22810 22812 22813 1 119.8800511 375.723200
22810 22812 22814 1 120.0200517 532.790560
22813 22812 22814 1 119.8800511 375.723200
22812 22814 22815 1 119.8800511 375.723200
22812 22814 22816 1 120.0200517 532.790560
22815 22814 22816 1 119.8800511 375.723200
22807 22816 22814 1 120.0200517 532.790560
22807 22816 22817 1 119.8800511 375.723200
22814 22816 22817 1 119.8800511 375.723200
22818 22819 22820 1 119.8800511 375.723200
22818 22819 22828 1 119.8800511 375.723200
22820 22819 22828 1 120.0200517 532.790560
22819 22820 22821 1 121.3800518 83.010560
22819 22820 22822 1 120.0200517 532.790560
22821 22820 22822 1 121.3800518 83.010560
7763 22821 7783 1 109.50000 418.400000
7763 22821 7785 1 109.50000 418.400000
7763 22821 22820 1 103.70004 836.800000
7783 22821 7785 1 109.50000 418.400000
7783 22821 22820 1 103.70004 836.800000
7785 22821 22820 1 103.70004 836.800000
22820 22822 22823 1 119.8800511 375.723200
22820 22822 22824 1 120.0200517 532.790560
22823 22822 22824 1 119.8800511 375.723200
22822 22824 22825 1 119.8800511 375.723200
22822 22824 22826 1 120.0200517 532.790560
22825 22824 22826 1 119.8800511 375.723200
22824 22826 22827 1 119.8800511 375.723200
22824 22826 22828 1 120.0200517 532.790560
22827 22826 22828 1 119.8800511 375.723200
22819 22828 22826 1 120.0200517 532.790560
22819 22828 22829 1 119.8800511 375.723200
22826 22828 22829 1 119.8800511 375.723200
22830 22831 22832 1 119.8800511 375.723200
22830 22831 22840 1 119.8800511 375.723200
22832 22831 22840 1 120.0200517 532.790560
22831 22832 22833 1 121.3800518 83.010560
22831 22832 22834 1 120.0200517 532.790560
22833 22832 22834 1 121.3800518 83.010560
383 22833 1830 1 109.50000 418.400000
383 22833 7800 1 109.50000 418.400000
383 22833 22832 1 103.70004 836.800000
1830 22833 7800 1 109.50000 418.400000
1830 22833 22832 1 103.70004 836.800000
7800 22833 22832 1 103.70004 836.800000
22832 22834 22835 1 119.8800511 375.723200
22832 22834 22836 1 120.0200517 532.790560
22835 22834 22836 1 119.8800511 375.723200
22834 22836 22837 1 119.8800511 375.723200
22834 22836 22838 1 120.0200517 532.790560
22837 22836 22838 1 119.8800511 375.723200
22836 22838 22839 1 119.8800511 375.723200
22836 22838 22840 1 120.0200517 532.790560
22839 22838 22840 1 119.8800511 375.723200
22831 22840 22838 1 120.0200517 532.790560
22831 22840 22841 1 119.8800511 375.723200
22838 22840 22841 1 119.8800511 375.723200
22842 22843 22844 1 119.8800511 375.723200
22842 22843 22852 1 119.8800511 375.723200
22844 22843 22852 1 120.0200517 532.790560
22843 22844 22845 1 121.3800518 83.010560
22843 22844 22846 1 120.0200517 532.790560
22845 22844 22846 1 121.3800518 83.010560
3549 22845 7805 1 109.50000 418.400000
3549 22845 7806 1 109.50000 418.400000
3549 22845 22844 1 103.70004 836.800000
7805 22845 7806 1 109.50000 418.400000
7805 22845 22844 1 103.70004 836.800000
7806 22845 22844 1 103.70004 836.800000
22844 22846 22847 1 119.8800511 375.723200
22844 22846 22848 1 120.0200517 532.790560
22847 22846 22848 1 119.8800511 375.723200
22846 22848 22849 1 119.8800511 375.723200
22846 22848 22850 1 120.0200517 532.790560
22849 22848 22850 1 119.8800511 375.723200
22848 22850 22851 1 119.8800511 375.723200
22848 22850 22852 1 120.0200517 532.790560
22851 22850 22852 1 119.8800511 375.723200
22843 22852 22850 1 120.0200517 532.790560
22843 22852 22853 1 119.8800511 375.723200
22850 22852 22853 1 119.8800511 375.723200
22854 22855 22856 1 119.8800511 375.723200
22854 22855 22864 1 119.8800511 375.723200
22856 22855 22864 1 120.0200517 532.790560
22855 22856 22857 1 121.3800518 83.010560
22855 22856 22858 1 120.0200517 532.790560
22857 22856 22858 1 121.3800518 83.010560
4771 22857 7099 1 109.50000 418.400000
4771 22857 7842 1 109.50000 418.400000
4771 22857 22856 1 103.70004 836.800000
7099 22857 7842 1 109.50000 418.400000
7099 22857 22856 1 103.70004 836.800000
7842 22857 22856 1 103.70004 836.800000
22856 22858 22859 1 119.8800511 375.723200
22856 22858 22860 1 120.0200517 532.790560
22859 22858 22860 1 119.8800511 375.723200
22858 22860 22861 1 119.8800511 375.723200
22858 22860 22862 1 120.0200517 532.790560
22861 22860 22862 1 119.8800511 375.723200
22860 22862 22863 1 119.8800511 375.723200
22860 22862 22864 1 120.0200517 532.790560
22863 22862 22864 1 119.8800511 375.723200
22855 22864 22862 1 120.0200517 532.790560
22855 22864 22865 1 119.8800511 375.723200
22862 22864 22865 1 119.8800511 375.723200
22866 22867 22868 1 119.8800511 375.723200
22866 22867 22876 1 119.8800511 375.723200
22868 22867 22876 1 120.0200517 532.790560
22867 22868 22869 1 121.3800518 83.010560
22867 22868 22870 1 120.0200517 532.790560
22869 22868 22870 1 121.3800518 83.010560
7843 22869 7844 1 109.50000 418.400000
7843 22869 7845 1 109.50000 418.400000
7843 22869 22868 1 103.70004 836.800000
7844 22869 7845 1 109.50000 418.400000
7844 22869 22868 1 103.70004 836.800000
7845 22869 22868 1 103.70004 836.800000
22868 22870 22871 1 119.8800511 375.723200
22868 22870 22872 1 120.0200517 532.790560
22871 22870 22872 1 119.8800511 375.723200
22870 22872 22873 1 119.8800511 375.723200
22870 22872 22874 1 120.0200517 532.790560
22873 22872 22874 1 119.8800511 375.723200
22872 22874 22875 1 119.8800511 375.723200
22872 22874 22876 1 120.0200517 532.790560
22875 22874 22876 1 119.8800511 375.723200
22867 22876 22874 1 120.0200517 532.790560
22867 22876 22877 1 119.8800511 375.723200
22874 22876 22877 1 119.8800511 375.723200
22878 22879 22880 1 119.8800511 375.723200
22878 22879 22888 1 119.8800511 375.723200
22880 22879 22888 1 120.0200517 532.790560
22879 22880 22881 1 121.3800518 83.010560
22879 22880 22882 1 120.0200517 532.790560
22881 22880 22882 1 121.3800518 83.010560
2419 22881 3922 1 109.50000 418.400000
2419 22881 7908 1 109.50000 418.400000
2419 22881 22880 1 103.70004 836.800000
3922 22881 7908 1 109.50000 418.400000
3922 22881 22880 1 103.70004 836.800000
7908 22881 22880 1 103.70004 836.800000
22880 22882 22883 1 119.8800511 375.723200
22880 22882 22884 1 120.0200517 532.790560
22883 22882 22884 1 119.8800511 375.723200
22882 22884 22885 1 119.8800511 375.723200
22882 22884 22886 1 120.0200517 532.790560
22885 22884 22886 1 119.8800511 375.723200
22884 22886 22887 1 119.8800511 375.723200
22884 22886 22888 1 120.0200517 532.790560
22887 22886 22888 1 119.8800511 375.723200
22879 22888 22886 1 120.0200517 532.790560
22879 22888 22889 1 119.8800511 375.723200
22886 22888 22889 1 119.8800511 375.723200
22890 22891 22892 1 119.8800511 375.723200
22890 22891 22900 1 119.8800511 375.723200
22892 22891 22900 1 120.0200517 532.790560
22891 22892 22893 1 121.3800518 83.010560
22891 22892 22894 1 120.0200517 532.790560
22893 22892 22894 1 121.3800518 83.010560
2899 22893 7932 1 109.50000 418.400000
2899 22893 7933 1 109.50000 418.400000
2899 22893 22892 1 103.70004 836.800000
7932 22893 7933 1 109.50000 418.400000
7932 22893 22892 1 103.70004 836.800000
7933 22893 22892 1 103.70004 836.800000
22892 22894 22895 1 119.8800511 375.723200
22892 22894 22896 1 120.0200517 532.790560
22895 22894 22896 1 119.8800511 375.723200
22894 22896 22897 1 119.8800511 375.723200
22894 22896 22898 1 120.0200517 532.790560
22897 22896 22898 1 119.8800511 375.723200
22896 22898 22899 1 119.8800511 375.723200
22896 22898 22900 1 120.0200517 532.790560
22899 22898 22900 1 119.8800511 375.723200
22891 22900 22898 1 120.0200517 532.790560
22891 22900 22901 1 119.8800511 375.723200
22898 22900 22901 1 119.8800511 375.723200
22902 22903 22904 1 119.8800511 375.723200
22902 22903 22912 1 119.8800511 375.723200
22904 22903 22912 1 120.0200517 532.790560
22903 22904 22905 1 121.3800518 83.010560
22903 22904 22906 1 120.0200517 532.790560
22905 22904 22906 1 121.3800518 83.010560
181 22905 6515 1 109.50000 418.400000
181 22905 7956 1 109.50000 418.400000
181 22905 22904 1 103.70004 836.800000
6515 22905 7956 1 109.50000 418.400000
6515 22905 22904 1 103.70004 836.800000
7956 22905 22904 1 103.70004 836.800000
22904 22906 22907 1 119.8800511 375.723200
22904 22906 22908 1 120.0200517 532.790560
22907 22906 22908 1 119.8800511 375.723200
22906 22908 22909 1 119.8800511 375.723200
22906 22908 22910 1 120.0200517 532.790560
22909 22908 22910 1 119.8800511 375.723200
22908 22910 22911 1 119.8800511 375.723200
22908 22910 22912 1 120.0200517 532.790560
22911 22910 22912 1 119.8800511 375.723200
22903 22912 22910 1 120.0200517 532.790560
22903 22912 22913 1 119.8800511 375.723200
22910 22912 22913 1 119.8800511 375.723200
22914 22915 22916 1 119.8800511 375.723200
22914 22915 22924 1 119.8800511 375.723200
22916 22915 22924 1 120.0200517 532.790560
22915 22916 22917 1 121.3800518 83.010560
22915 22916 22918 1 120.0200517 532.790560
22917 22916 22918 1 121.3800518 83.010560
4607 22917 4608 1 109.50000 418.400000
4607 22917 8045 1 109.50000 418.400000
4607 22917 22916 1 103.70004 836.800000
4608 22917 8045 1 109.50000 418.400000
4608 22917 22916 1 103.70004 836.800000
8045 22917 22916 1 103.70004 836.800000
22916 22918 22919 1 119.8800511 375.723200
22916 22918 22920 1 120.0200517 532.790560
22919 22918 22920 1 119.8800511 375.723200
22918 22920 22921 1 119.8800511 375.723200
22918 22920 22922 1 120.0200517 532.790560
22921 22920 22922 1 119.8800511 375.723200
22920 22922 22923 1 119.8800511 375.723200
22920 22922 22924 1 120.0200517 532.790560
22923 22922 22924 1 119.8800511 375.723200
22915 22924 22922 1 120.0200517 532.790560
22915 22924 22925 1 119.8800511 375.723200
22922 22924 22925 1 119.8800511 375.723200
22926 22927 22928 1 119.8800511 375.723200
22926 22927 22936 1 119.8800511 375.723200
22928 22927 22936 1 120.0200517 532.790560
22927 22928 22929 1 121.3800518 83.010560
22927 22928 22930 1 120.0200517 532.790560
22929 22928 22930 1 121.3800518 83.010560
4023 22929 5727 1 109.50000 418.400000
4023 22929 8081 1 109.50000 418.400000
4023 22929 22928 1 103.70004 836.800000
5727 22929 8081 1 109.50000 418.400000
5727 22929 22928 1 103.70004 836.800000
8081 22929 22928 1 103.70004 836.800000
22928 22930 22931 1 119.8800511 375.723200
22928 22930 22932 1 120.0200517 532.790560
22931 22930 22932 1 119.8800511 375.723200
22930 22932 22933 1 119.8800511 375.723200
22930 22932 22934 1 120.0200517 532.790560
22933 22932 22934 1 119.8800511 375.723200
22932 22934 22935 1 119.8800511 375.723200
22932 22934 22936 1 120.0200517 532.790560
22935 22934 22936 1 119.8800511 375.723200
22927 22936 22934 1 120.0200517 532.790560
22927 22936 22937 1 119.8800511 375.723200
22934 22936 22937 1 119.8800511 375.723200
22938 22939 22940 1 119.8800511 375.723200
22938 22939 22948 1 119.8800511 375.723200
22940 22939 22948 1 120.0200517 532.790560
22939 22940 22941 1 121.3800518 83.010560
22939 22940 22942 1 120.0200517 532.790560
22941 22940 22942 1 121.3800518 83.010560
8089 22941 8090 1 109.50000 418.400000
8089 22941 10514 1 109.50000 418.400000
8089 22941 22940 1 103.70004 836.800000
8090 22941 10514 1 109.50000 418.400000
8090 22941 22940 1 103.70004 836.800000
10514 22941 22940 1 103.70004 836.800000
22940 22942 22943 1 119.8800511 375.723200
22940 22942 22944 1 120.0200517 532.790560
22943 22942 22944 1 119.8800511 375.723200
22942 22944 22945 1 119.8800511 375.723200
22942 22944 22946 1 120.0200517 532.790560
22945 22944 22946 1 119.8800511 375.723200
22944 22946 22947 1 119.8800511 375.723200
22944 22946 22948 1 120.0200517 532.790560
22947 22946 22948 1 119.8800511 375.723200
22939 22948 22946 1 120.0200517 532.790560
22939 22948 22949 1 119.8800511 375.723200
22946 22948 22949 1 119.8800511 375.723200
22950 22951 22952 1 119.8800511 375.723200
22950 22951 22960 1 119.8800511 375.723200
22952 22951 22960 1 120.0200517 532.790560
22951 22952 22953 1 121.3800518 83.010560
22951 22952 22954 1 120.0200517 532.790560
22953 22952 22954 1 121.3800518 83.010560
8091 22953 8092 1 109.50000 418.400000
8091 22953 8093 1 109.50000 418.400000
8091 22953 22952 1 103.70004 836.800000
8092 22953 8093 1 109.50000 418.400000
8092 22953 22952 1 103.70004 836.800000
8093 22953 22952 1 103.70004 836.800000
22952 22954 22955 1 119.8800511 375.723200
22952 22954 22956 1 120.0200517 532.790560
22955 22954 22956 1 119.8800511 375.723200
22954 22956 22957 1 119.8800511 375.723200
22954 22956 22958 1 120.0200517 532.790560
22957 22956 22958 1 119.8800511 375.723200
22956 22958 22959 1 119.8800511 375.723200
22956 22958 22960 1 120.0200517 532.790560
22959 22958 22960 1 119.8800511 375.723200
22951 22960 22958 1 120.0200517 532.790560
22951 22960 22961 1 119.8800511 375.723200
22958 22960 22961 1 119.8800511 375.723200
22962 22963 22964 1 119.8800511 375.723200
22962 22963 22972 1 119.8800511 375.723200
22964 22963 22972 1 120.0200517 532.790560
22963 22964 22965 1 121.3800518 83.010560
22963 22964 22966 1 120.0200517 532.790560
22965 22964 22966 1 121.3800518 83.010560
4236 22965 8106 1 109.50000 418.400000
4236 22965 9180 1 109.50000 418.400000
4236 22965 22964 1 103.70004 836.800000
8106 22965 9180 1 109.50000 418.400000
8106 22965 22964 1 103.70004 836.800000
9180 22965 22964 1 103.70004 836.800000
22964 22966 22967 1 119.8800511 375.723200
22964 22966 22968 1 120.0200517 532.790560
22967 22966 22968 1 119.8800511 375.723200
22966 22968 22969 1 119.8800511 375.723200
22966 22968 22970 1 120.0200517 532.790560
22969 22968 22970 1 119.8800511 375.723200
22968 22970 22971 1 119.8800511 375.723200
22968 22970 22972 1 120.0200517 532.790560
22971 22970 22972 1 119.8800511 375.723200
22963 22972 22970 1 120.0200517 532.790560
22963 22972 22973 1 119.8800511 375.723200
22970 22972 22973 1 119.8800511 375.723200
22974 22975 22976 1 119.8800511 375.723200
22974 22975 22984 1 119.8800511 375.723200
22976 22975 22984 1 120.0200517 532.790560
22975 22976 22977 1 121.3800518 83.010560
22975 22976 22978 1 120.0200517 532.790560
22977 22976 22978 1 121.3800518 83.010560
6056 22977 7529 1 109.50000 418.400000
6056 22977 8142 1 109.50000 418.400000
6056 22977 22976 1 103.70004 836.800000
7529 22977 8142 1 109.50000 418.400000
7529 22977 22976 1 103.70004 836.800000
8142 22977 22976 1 103.70004 836.800000
22976 22978 22979 1 119.8800511 375.723200
22976 22978 22980 1 120.0200517 532.790560
22979 22978 22980 1 119.8800511 375.723200
22978 22980 22981 1 119.8800511 375.723200
22978 22980 22982 1 120.0200517 532.790560
22981 22980 22982 1 119.8800511 375.723200
22980 22982 22983 1 119.8800511 375.723200
22980 22982 22984 1 120.0200517 532.790560
22983 22982 22984 1 119.8800511 375.723200
22975 22984 22982 1 120.0200517 532.790560
22975 22984 22985 1 119.8800511 375.723200
22982 22984 22985 1 119.8800511 375.723200
22986 22987 22988 1 119.8800511 375.723200
22986 22987 22996 1 119.8800511 375.723200
22988 22987 22996 1 120.0200517 532.790560
22987 22988 22989 1 121.3800518 83.010560
22987 22988 22990 1 120.0200517 532.790560
22989 22988 22990 1 121.3800518 83.010560
7364 22989 7762 1 109.50000 418.400000
7364 22989 7763 1 109.50000 418.400000
7364 22989 22988 1 103.70004 836.800000
7762 22989 7763 1 109.50000 418.400000
7762 22989 22988 1 103.70004 836.800000
7763 22989 22988 1 103.70004 836.800000
22988 22990 22991 1 119.8800511 375.723200
22988 22990 22992 1 120.0200517 532.790560
22991 22990 22992 1 119.8800511 375.723200
22990 22992 22993 1 119.8800511 375.723200
22990 22992 22994 1 120.0200517 532.790560
22993 22992 22994 1 119.8800511 375.723200
22992 22994 22995 1 119.8800511 375.723200
22992 22994 22996 1 120.0200517 532.790560
22995 22994 22996 1 119.8800511 375.723200
22987 22996 22994 1 120.0200517 532.790560
22987 22996 22997 1 119.8800511 375.723200
22994 22996 22997 1 119.8800511 375.723200
22998 22999 23000 1 119.8800511 375.723200
22998 22999 23008 1 119.8800511 375.723200
23000 22999 23008 1 120.0200517 532.790560
22999 23000 23001 1 121.3800518 83.010560
22999 23000 23002 1 120.0200517 532.790560
23001 23000 23002 1 121.3800518 83.010560
2177 23001 4737 1 109.50000 418.400000
2177 23001 8153 1 109.50000 418.400000
2177 23001 23000 1 103.70004 836.800000
4737 23001 8153 1 109.50000 418.400000
4737 23001 23000 1 103.70004 836.800000
8153 23001 23000 1 103.70004 836.800000
23000 23002 23003 1 119.8800511 375.723200
23000 23002 23004 1 120.0200517 532.790560
23003 23002 23004 1 119.8800511 375.723200
23002 23004 23005 1 119.8800511 375.723200
23002 23004 23006 1 120.0200517 532.790560
23005 23004 23006 1 119.8800511 375.723200
23004 23006 23007 1 119.8800511 375.723200
23004 23006 23008 1 120.0200517 532.790560
23007 23006 23008 1 119.8800511 375.723200
22999 23008 23006 1 120.0200517 532.790560
22999 23008 23009 1 119.8800511 375.723200
23006 23008 23009 1 119.8800511 375.723200
23010 23011 23012 1 119.8800511 375.723200
23010 23011 23020 1 119.8800511 375.723200
23012 23011 23020 1 120.0200517 532.790560
23011 23012 23013 1 121.3800518 83.010560
23011 23012 23014 1 120.0200517 532.790560
23013 23012 23014 1 121.3800518 83.010560
8172 23013 8173 1 109.50000 418.400000
8172 23013 8174 1 109.50000 418.400000
8172 23013 23012 1 103.70004 836.800000
8173 23013 8174 1 109.50000 418.400000
8173 23013 23012 1 103.70004 836.800000
8174 23013 23012 1 103.70004 836.800000
23012 23014 23015 1 119.8800511 375.723200
23012 23014 23016 1 120.0200517 532.790560
23015 23014 23016 1 119.8800511 375.723200
23014 23016 23017 1 119.8800511 375.723200
23014 23016 23018 1 120.0200517 532.790560
23017 23016 23018 1 119.8800511 375.723200
23016 23018 23019 1 119.8800511 375.723200
23016 23018 23020 1 120.0200517 532.790560
23019 23018 23020 1 119.8800511 375.723200
23011 23020 23018 1 120.0200517 532.790560
23011 23020 23021 1 119.8800511 375.723200
23018 23020 23021 1 119.8800511 375.723200
23022 23023 23024 1 119.8800511 375.723200
23022 23023 23032 1 119.8800511 375.723200
23024 23023 23032 1 120.0200517 532.790560
23023 23024 23025 1 121.3800518 83.010560
23023 23024 23026 1 120.0200517 532.790560
23025 23024 23026 1 121.3800518 83.010560
5352 23025 8237 1 109.50000 418.400000
5352 23025 8373 1 109.50000 418.400000
5352 23025 23024 1 103.70004 836.800000
8237 23025 8373 1 109.50000 418.400000
8237 23025 23024 1 103.70004 836.800000
8373 23025 23024 1 103.70004 836.800000
23024 23026 23027 1 119.8800511 375.723200
23024 23026 23028 1 120.0200517 532.790560
23027 23026 23028 1 119.8800511 375.723200
23026 23028 23029 1 119.8800511 375.723200
23026 23028 23030 1 120.0200517 532.790560
23029 23028 23030 1 119.8800511 375.723200
23028 23030 23031 1 119.8800511 375.723200
23028 23030 23032 1 120.0200517 532.790560
23031 23030 23032 1 119.8800511 375.723200
23023 23032 23030 1 120.0200517 532.790560
23023 23032 23033 1 119.8800511 375.723200
23030 23032 23033 1 119.8800511 375.723200
23034 23035 23036 1 119.8800511 375.723200
23034 23035 23044 1 119.8800511 375.723200
23036 23035 23044 1 120.0200517 532.790560
23035 23036 23037 1 121.3800518 83.010560
23035 23036 23038 1 120.0200517 532.790560
23037 23036 23038 1 121.3800518 83.010560
4516 23037 6448 1 109.50000 418.400000
4516 23037 8246 1 109.50000 418.400000
4516 23037 23036 1 103.70004 836.800000
6448 23037 8246 1 109.50000 418.400000
6448 23037 23036 1 103.70004 836.800000
8246 23037 23036 1 103.70004 836.800000
23036 23038 23039 1 119.8800511 375.723200
23036 23038 23040 1 120.0200517 532.790560
23039 23038 23040 1 119.8800511 375.723200
23038 23040 23041 1 119.8800511 375.723200
23038 23040 23042 1 120.0200517 532.790560
23041 23040 23042 1 119.8800511 375.723200
23040 23042 23043 1 119.8800511 375.723200
23040 23042 23044 1 120.0200517 532.790560
23043 23042 23044 1 119.8800511 375.723200
23035 23044 23042 1 120.0200517 532.790560
23035 23044 23045 1 119.8800511 375.723200
23042 23044 23045 1 119.8800511 375.723200
23046 23047 23048 1 119.8800511 375.723200
23046 23047 23056 1 119.8800511 375.723200
23048 23047 23056 1 120.0200517 532.790560
23047 23048 23049 1 121.3800518 83.010560
23047 23048 23050 1 120.0200517 532.790560
23049 23048 23050 1 121.3800518 83.010560
2587 23049 5183 1 109.50000 418.400000
2587 23049 8262 1 109.50000 418.400000
2587 23049 23048 1 103.70004 836.800000
5183 23049 8262 1 109.50000 418.400000
5183 23049 23048 1 103.70004 836.800000
8262 23049 23048 1 103.70004 836.800000
23048 23050 23051 1 119.8800511 375.723200
23048 23050 23052 1 120.0200517 532.790560
23051 23050 23052 1 119.8800511 375.723200
23050 23052 23053 1 119.8800511 375.723200
23050 23052 23054 1 120.0200517 532.790560
23053 23052 23054 1 119.8800511 375.723200
23052 23054 23055 1 119.8800511 375.723200
23052 23054 23056 1 120.0200517 532.790560
23055 23054 23056 1 119.8800511 375.723200
23047 23056 23054 1 120.0200517 532.790560
23047 23056 23057 1 119.8800511 375.723200
23054 23056 23057 1 119.8800511 375.723200
23058 23059 23060 1 119.8800511 375.723200
23058 23059 23068 1 119.8800511 375.723200
23060 23059 23068 1 120.0200517 532.790560
23059 23060 23061 1 121.3800518 83.010560
23059 23060 23062 1 120.0200517 532.790560
23061 23060 23062 1 121.3800518 83.010560
4707 23061 5374 1 109.50000 418.400000
4707 23061 7666 1 109.50000 418.400000
4707 23061 23060 1 103.70004 836.800000
5374 23061 7666 1 109.50000 418.400000
5374 23061 23060 1 103.70004 836.800000
7666 23061 23060 1 103.70004 836.800000
23060 23062 23063 1 119.8800511 375.723200
23060 23062 23064 1 120.0200517 532.790560
23063 23062 23064 1 119.8800511 375.723200
23062 23064 23065 1 119.8800511 375.723200
23062 23064 23066 1 120.0200517 532.790560
23065 23064 23066 1 119.8800511 375.723200
23064 23066 23067 1 119.8800511 375.723200
23064 23066 23068 1 120.0200517 532.790560
23067 23066 23068 1 119.8800511 375.723200
23059 23068 23066 1 120.0200517 532.790560
23059 23068 23069 1 119.8800511 375.723200
23066 23068 23069 1 119.8800511 375.723200
23070 23071 23072 1 119.8800511 375.723200
23070 23071 23080 1 119.8800511 375.723200
23072 23071 23080 1 120.0200517 532.790560
23071 23072 23073 1 121.3800518 83.010560
23071 23072 23074 1 120.0200517 532.790560
23073 23072 23074 1 121.3800518 83.010560
6 23073 7818 1 109.50000 418.400000
6 23073 7819 1 109.50000 418.400000
6 23073 23072 1 103.70004 836.800000
7818 23073 7819 1 109.50000 418.400000
7818 23073 23072 1 103.70004 836.800000
7819 23073 23072 1 103.70004 836.800000
23072 23074 23075 1 119.8800511 375.723200
23072 23074 23076 1 120.0200517 532.790560
23075 23074 23076 1 119.8800511 375.723200
23074 23076 23077 1 119.8800511 375.723200
23074 23076 23078 1 120.0200517 532.790560
23077 23076 23078 1 119.8800511 375.723200
23076 23078 23079 1 119.8800511 375.723200
23076 23078 23080 1 120.0200517 532.790560
23079 23078 23080 1 119.8800511 375.723200
23071 23080 23078 1 120.0200517 532.790560
23071 23080 23081 1 119.8800511 375.723200
23078 23080 23081 1 119.8800511 375.723200
23082 23083 23084 1 119.8800511 375.723200
23082 23083 23092 1 119.8800511 375.723200
23084 23083 23092 1 120.0200517 532.790560
23083 23084 23085 1 121.3800518 83.010560
23083 23084 23086 1 120.0200517 532.790560
23085 23084 23086 1 121.3800518 83.010560
5299 23085 6666 1 109.50000 418.400000
5299 23085 8298 1 109.50000 418.400000
5299 23085 23084 1 103.70004 836.800000
6666 23085 8298 1 109.50000 418.400000
6666 23085 23084 1 103.70004 836.800000
8298 23085 23084 1 103.70004 836.800000
23084 23086 23087 1 119.8800511 375.723200
23084 23086 23088 1 120.0200517 532.790560
23087 23086 23088 1 119.8800511 375.723200
23086 23088 23089 1 119.8800511 375.723200
23086 23088 23090 1 120.0200517 532.790560
23089 23088 23090 1 119.8800511 375.723200
23088 23090 23091 1 119.8800511 375.723200
23088 23090 23092 1 120.0200517 532.790560
23091 23090 23092 1 119.8800511 375.723200
23083 23092 23090 1 120.0200517 532.790560
23083 23092 23093 1 119.8800511 375.723200
23090 23092 23093 1 119.8800511 375.723200
23094 23095 23096 1 119.8800511 375.723200
23094 23095 23104 1 119.8800511 375.723200
23096 23095 23104 1 120.0200517 532.790560
23095 23096 23097 1 121.3800518 83.010560
23095 23096 23098 1 120.0200517 532.790560
23097 23096 23098 1 121.3800518 83.010560
5463 23097 8331 1 109.50000 418.400000
5463 23097 8332 1 109.50000 418.400000
5463 23097 23096 1 103.70004 836.800000
8331 23097 8332 1 109.50000 418.400000
8331 23097 23096 1 103.70004 836.800000
8332 23097 23096 1 103.70004 836.800000
23096 23098 23099 1 119.8800511 375.723200
23096 23098 23100 1 120.0200517 532.790560
23099 23098 23100 1 119.8800511 375.723200
23098 23100 23101 1 119.8800511 375.723200
23098 23100 23102 1 120.0200517 532.790560
23101 23100 23102 1 119.8800511 375.723200
23100 23102 23103 1 119.8800511 375.723200
23100 23102 23104 1 120.0200517 532.790560
23103 23102 23104 1 119.8800511 375.723200
23095 23104 23102 1 120.0200517 532.790560
23095 23104 23105 1 119.8800511 375.723200
23102 23104 23105 1 119.8800511 375.723200
23106 23107 23108 1 119.8800511 375.723200
23106 23107 23116 1 119.8800511 375.723200
23108 23107 23116 1 120.0200517 532.790560
23107 23108 23109 1 121.3800518 83.010560
23107 23108 23110 1 120.0200517 532.790560
23109 23108 23110 1 121.3800518 83.010560
5998 23109 7217 1 109.50000 418.400000
5998 23109 8354 1 109.50000 418.400000
5998 23109 23108 1 103.70004 836.800000
7217 23109 8354 1 109.50000 418.400000
7217 23109 23108 1 103.70004 836.800000
8354 23109 23108 1 103.70004 836.800000
23108 23110 23111 1 119.8800511 375.723200
23108 23110 23112 1 120.0200517 532.790560
23111 23110 23112 1 119.8800511 375.723200
23110 23112 23113 1 119.8800511 375.723200
23110 23112 23114 1 120.0200517 532.790560
23113 23112 23114 1 119.8800511 375.723200
23112 23114 23115 1 119.8800511 375.723200
23112 23114 23116 1 120.0200517 532.790560
23115 23114 23116 1 119.8800511 375.723200
23107 23116 23114 1 120.0200517 532.790560
23107 23116 23117 1 119.8800511 375.723200
23114 23116 23117 1 119.8800511 375.723200
23118 23119 23120 1 119.8800511 375.723200
23118 23119 23128 1 119.8800511 375.723200
23120 23119 23128 1 120.0200517 532.790560
23119 23120 23121 1 121.3800518 83.010560
23119 23120 23122 1 120.0200517 532.790560
23121 23120 23122 1 121.3800518 83.010560
8368 23121 8369 1 109.50000 418.400000
8368 23121 8370 1 109.50000 418.400000
8368 23121 23120 1 103.70004 836.800000
8369 23121 8370 1 109.50000 418.400000
8369 23121 23120 1 103.70004 836.800000
8370 23121 23120 1 103.70004 836.800000
23120 23122 23123 1 119.8800511 375.723200
23120 23122 23124 1 120.0200517 532.790560
23123 23122 23124 1 119.8800511 375.723200
23122 23124 23125 1 119.8800511 375.723200
23122 23124 23126 1 120.0200517 532.790560
23125 23124 23126 1 119.8800511 375.723200
23124 23126 23127 1 119.8800511 375.723200
23124 23126 23128 1 120.0200517 532.790560
23127 23126 23128 1 119.8800511 375.723200
23119 23128 23126 1 120.0200517 532.790560
23119 23128 23129 1 119.8800511 375.723200
23126 23128 23129 1 119.8800511 375.723200
23130 23131 23132 1 119.8800511 375.723200
23130 23131 23140 1 119.8800511 375.723200
23132 23131 23140 1 120.0200517 532.790560
23131 23132 23133 1 121.3800518 83.010560
23131 23132 23134 1 120.0200517 532.790560
23133 23132 23134 1 121.3800518 83.010560
4817 23133 7219 1 109.50000 418.400000
4817 23133 8381 1 109.50000 418.400000
4817 23133 23132 1 103.70004 836.800000
7219 23133 8381 1 109.50000 418.400000
7219 23133 23132 1 103.70004 836.800000
8381 23133 23132 1 103.70004 836.800000
23132 23134 23135 1 119.8800511 375.723200
23132 23134 23136 1 120.0200517 532.790560
23135 23134 23136 1 119.8800511 375.723200
23134 23136 23137 1 119.8800511 375.723200
23134 23136 23138 1 120.0200517 532.790560
23137 23136 23138 1 119.8800511 375.723200
23136 23138 23139 1 119.8800511 375.723200
23136 23138 23140 1 120.0200517 532.790560
23139 23138 23140 1 119.8800511 375.723200
23131 23140 23138 1 120.0200517 532.790560
23131 23140 23141 1 119.8800511 375.723200
23138 23140 23141 1 119.8800511 375.723200
23142 23143 23144 1 119.8800511 375.723200
23142 23143 23152 1 119.8800511 375.723200
23144 23143 23152 1 120.0200517 532.790560
23143 23144 23145 1 121.3800518 83.010560
23143 23144 23146 1 120.0200517 532.790560
23145 23144 23146 1 121.3800518 83.010560
7805 23145 8404 1 109.50000 418.400000
7805 23145 8405 1 109.50000 418.400000
7805 23145 23144 1 103.70004 836.800000
8404 23145 8405 1 109.50000 418.400000
8404 23145 23144 1 103.70004 836.800000
8405 23145 23144 1 103.70004 836.800000
23144 23146 23147 1 119.8800511 375.723200
23144 23146 23148 1 120.0200517 532.790560
23147 23146 23148 1 119.8800511 375.723200
23146 23148 23149 1 119.8800511 375.723200
23146 23148 23150 1 120.0200517 532.790560
23149 23148 23150 1 119.8800511 375.723200
23148 23150 23151 1 119.8800511 375.723200
23148 23150 23152 1 120.0200517 532.790560
23151 23150 23152 1 119.8800511 375.723200
23143 23152 23150 1 120.0200517 532.790560
23143 23152 23153 1 119.8800511 375.723200
23150 23152 23153 1 119.8800511 375.723200
23154 23155 23156 1 119.8800511 375.723200
23154 23155 23164 1 119.8800511 375.723200
23156 23155 23164 1 120.0200517 532.790560
23155 23156 23157 1 121.3800518 83.010560
23155 23156 23158 1 120.0200517 532.790560
23157 23156 23158 1 121.3800518 83.010560
8473 23157 8474 1 109.50000 418.400000
8473 23157 8829 1 109.50000 418.400000
8473 23157 23156 1 103.70004 836.800000
8474 23157 8829 1 109.50000 418.400000
8474 23157 23156 1 103.70004 836.800000
8829 23157 23156 1 103.70004 836.800000
23156 23158 23159 1 119.8800511 375.723200
23156 23158 23160 1 120.0200517 532.790560
23159 23158 23160 1 119.8800511 375.723200
23158 23160 23161 1 119.8800511 375.723200
23158 23160 23162 1 120.0200517 532.790560
23161 23160 23162 1 119.8800511 375.723200
23160 23162 23163 1 119.8800511 375.723200
23160 23162 23164 1 120.0200517 532.790560
23163 23162 23164 1 119.8800511 375.723200
23155 23164 23162 1 120.0200517 532.790560
23155 23164 23165 1 119.8800511 375.723200
23162 23164 23165 1 119.8800511 375.723200
23166 23167 23168 1 119.8800511 375.723200
23166 23167 23176 1 119.8800511 375.723200
23168 23167 23176 1 120.0200517 532.790560
23167 23168 23169 1 121.3800518 83.010560
23167 23168 23170 1 120.0200517 532.790560
23169 23168 23170 1 121.3800518 83.010560
1137 23169 4896 1 109.50000 418.400000
1137 23169 8492 1 109.50000 418.400000
1137 23169 23168 1 103.70004 836.800000
4896 23169 8492 1 109.50000 418.400000
4896 23169 23168 1 103.70004 836.800000
8492 23169 23168 1 103.70004 836.800000
23168 23170 23171 1 119.8800511 375.723200
23168 23170 23172 1 120.0200517 532.790560
23171 23170 23172 1 119.8800511 375.723200
23170 23172 23173 1 119.8800511 375.723200
23170 23172 23174 1 120.0200517 532.790560
23173 23172 23174 1 119.8800511 375.723200
23172 23174 23175 1 119.8800511 375.723200
23172 23174 23176 1 120.0200517 532.790560
23175 23174 23176 1 119.8800511 375.723200
23167 23176 23174 1 120.0200517 532.790560
23167 23176 23177 1 119.8800511 375.723200
23174 23176 23177 1 119.8800511 375.723200
23178 23179 23180 1 119.8800511 375.723200
23178 23179 23188 1 119.8800511 375.723200
23180 23179 23188 1 120.0200517 532.790560
23179 23180 23181 1 121.3800518 83.010560
23179 23180 23182 1 120.0200517 532.790560
23181 23180 23182 1 121.3800518 83.010560
3914 23181 4325 1 109.50000 418.400000
3914 23181 6721 1 109.50000 418.400000
3914 23181 23180 1 103.70004 836.800000
4325 23181 6721 1 109.50000 418.400000
4325 23181 23180 1 103.70004 836.800000
6721 23181 23180 1 103.70004 836.800000
23180 23182 23183 1 119.8800511 375.723200
23180 23182 23184 1 120.0200517 532.790560
23183 23182 23184 1 119.8800511 375.723200
23182 23184 23185 1 119.8800511 375.723200
23182 23184 23186 1 120.0200517 532.790560
23185 23184 23186 1 119.8800511 375.723200
23184 23186 23187 1 119.8800511 375.723200
23184 23186 23188 1 120.0200517 532.790560
23187 23186 23188 1 119.8800511 375.723200
23179 23188 23186 1 120.0200517 532.790560
23179 23188 23189 1 119.8800511 375.723200
23186 23188 23189 1 119.8800511 375.723200
23190 23191 23192 1 119.8800511 375.723200
23190 23191 23200 1 119.8800511 375.723200
23192 23191 23200 1 120.0200517 532.790560
23191 23192 23193 1 121.3800518 83.010560
23191 23192 23194 1 120.0200517 532.790560
23193 23192 23194 1 121.3800518 83.010560
3773 23193 8511 1 109.50000 418.400000
3773 23193 8512 1 109.50000 418.400000
3773 23193 23192 1 103.70004 836.800000
8511 23193 8512 1 109.50000 418.400000
8511 23193 23192 1 103.70004 836.800000
8512 23193 23192 1 103.70004 836.800000
23192 23194 23195 1 119.8800511 375.723200
23192 23194 23196 1 120.0200517 532.790560
23195 23194 23196 1 119.8800511 375.723200
23194 23196 23197 1 119.8800511 375.723200
23194 23196 23198 1 120.0200517 532.790560
23197 23196 23198 1 119.8800511 375.723200
23196 23198 23199 1 119.8800511 375.723200
23196 23198 23200 1 120.0200517 532.790560
23199 23198 23200 1 119.8800511 375.723200
23191 23200 23198 1 120.0200517 532.790560
23191 23200 23201 1 119.8800511 375.723200
23198 23200 23201 1 119.8800511 375.723200
23202 23203 23204 1 119.8800511 375.723200
23202 23203 23212 1 119.8800511 375.723200
23204 23203 23212 1 120.0200517 532.790560
23203 23204 23205 1 121.3800518 83.010560
23203 23204 23206 1 120.0200517 532.790560
23205 23204 23206 1 121.3800518 83.010560
1701 23205 4553 1 109.50000 418.400000
1701 23205 8520 1 109.50000 418.400000
1701 23205 23204 1 103.70004 836.800000
4553 23205 8520 1 109.50000 418.400000
4553 23205 23204 1 103.70004 836.800000
8520 23205 23204 1 103.70004 836.800000
23204 23206 23207 1 119.8800511 375.723200
23204 23206 23208 1 120.0200517 532.790560
23207 23206 23208 1 119.8800511 375.723200
23206 23208 23209 1 119.8800511 375.723200
23206 23208 23210 1 120.0200517 532.790560
23209 23208 23210 1 119.8800511 375.723200
23208 23210 23211 1 119.8800511 375.723200
23208 23210 23212 1 120.0200517 532.790560
23211 23210 23212 1 119.8800511 375.723200
23203 23212 23210 1 120.0200517 532.790560
23203 23212 23213 1 119.8800511 375.723200
23210 23212 23213 1 119.8800511 375.723200
23214 23215 23216 1 119.8800511 375.723200
23214 23215 23224 1 119.8800511 375.723200
23216 23215 23224 1 120.0200517 532.790560
23215 23216 23217 1 121.3800518 83.010560
23215 23216 23218 1 120.0200517 532.790560
23217 23216 23218 1 121.3800518 83.010560
5440 23217 8573 1 109.50000 418.400000
5440 23217 8574 1 109.50000 418.400000
5440 23217 23216 1 103.70004 836.800000
8573 23217 8574 1 109.50000 418.400000
8573 23217 23216 1 103.70004 836.800000
8574 23217 23216 1 103.70004 836.800000
23216 23218 23219 1 119.8800511 375.723200
23216 23218 23220 1 120.0200517 532.790560
23219 23218 23220 1 119.8800511 375.723200
23218 23220 23221 1 119.8800511 375.723200
23218 23220 23222 1 120.0200517 532.790560
23221 23220 23222 1 119.8800511 375.723200
23220 23222 23223 1 119.8800511 375.723200
23220 23222 23224 1 120.0200517 532.790560
23223 23222 23224 1 119.8800511 375.723200
23215 23224 23222 1 120.0200517 532.790560
23215 23224 23225 1 119.8800511 375.723200
23222 23224 23225 1 119.8800511 375.723200
23226 23227 23228 1 119.8800511 375.723200
23226 23227 23236 1 119.8800511 375.723200
23228 23227 23236 1 120.0200517 532.790560
23227 23228 23229 1 121.3800518 83.010560
23227 23228 23230 1 120.0200517 532.790560
23229 23228 23230 1 121.3800518 83.010560
8634 23229 8635 1 109.50000 418.400000
8634 23229 8636 1 109.50000 418.400000
8634 23229 23228 1 103.70004 836.800000
8635 23229 8636 1 109.50000 418.400000
8635 23229 23228 1 103.70004 836.800000
8636 23229 23228 1 103.70004 836.800000
23228 23230 23231 1 119.8800511 375.723200
23228 23230 23232 1 120.0200517 532.790560
23231 23230 23232 1 119.8800511 375.723200
23230 23232 23233 1 119.8800511 375.723200
23230 23232 23234 1 120.0200517 532.790560
23233 23232 23234 1 119.8800511 375.723200
23232 23234 23235 1 119.8800511 375.723200
23232 23234 23236 1 120.0200517 532.790560
23235 23234 23236 1 119.8800511 375.723200
23227 23236 23234 1 120.0200517 532.790560
23227 23236 23237 1 119.8800511 375.723200
23234 23236 23237 1 119.8800511 375.723200
23238 23239 23240 1 119.8800511 375.723200
23238 23239 23248 1 119.8800511 375.723200
23240 23239 23248 1 120.0200517 532.790560
23239 23240 23241 1 121.3800518 83.010560
23239 23240 23242 1 120.0200517 532.790560
23241 23240 23242 1 121.3800518 83.010560
6899 23241 8647 1 109.50000 418.400000
6899 23241 8648 1 109.50000 418.400000
6899 23241 23240 1 103.70004 836.800000
8647 23241 8648 1 109.50000 418.400000
8647 23241 23240 1 103.70004 836.800000
8648 23241 23240 1 103.70004 836.800000
23240 23242 23243 1 119.8800511 375.723200
23240 23242 23244 1 120.0200517 532.790560
23243 23242 23244 1 119.8800511 375.723200
23242 23244 23245 1 119.8800511 375.723200
23242 23244 23246 1 120.0200517 532.790560
23245 23244 23246 1 119.8800511 375.723200
23244 23246 23247 1 119.8800511 375.723200
23244 23246 23248 1 120.0200517 532.790560
23247 23246 23248 1 119.8800511 375.723200
23239 23248 23246 1 120.0200517 532.790560
23239 23248 23249 1 119.8800511 375.723200
23246 23248 23249 1 119.8800511 375.723200
23250 23251 23252 1 119.8800511 375.723200
23250 23251 23260 1 119.8800511 375.723200
23252 23251 23260 1 120.0200517 532.790560
23251 23252 23253 1 121.3800518 83.010560
23251 23252 23254 1 120.0200517 532.790560
23253 23252 23254 1 121.3800518 83.010560
6224 23253 8657 1 109.50000 418.400000
6224 23253 8658 1 109.50000 418.400000
6224 23253 23252 1 103.70004 836.800000
8657 23253 8658 1 109.50000 418.400000
8657 23253 23252 1 103.70004 836.800000
8658 23253 23252 1 103.70004 836.800000
23252 23254 23255 1 119.8800511 375.723200
23252 23254 23256 1 120.0200517 532.790560
23255 23254 23256 1 119.8800511 375.723200
23254 23256 23257 1 119.8800511 375.723200
23254 23256 23258 1 120.0200517 532.790560
23257 23256 23258 1 119.8800511 375.723200
23256 23258 23259 1 119.8800511 375.723200
23256 23258 23260 1 120.0200517 532.790560
23259 23258 23260 1 119.8800511 375.723200
23251 23260 23258 1 120.0200517 532.790560
23251 23260 23261 1 119.8800511 375.723200
23258 23260 23261 1 119.8800511 375.723200
23262 23263 23264 1 119.8800511 375.723200
23262 23263 23272 1 119.8800511 375.723200
23264 23263 23272 1 120.0200517 532.790560
23263 23264 23265 1 121.3800518 83.010560
23263 23264 23266 1 120.0200517 532.790560
23265 23264 23266 1 121.3800518 83.010560
3478 23265 7440 1 109.50000 418.400000
3478 23265 8672 1 109.50000 418.400000
3478 23265 23264 1 103.70004 836.800000
7440 23265 8672 1 109.50000 418.400000
7440 23265 23264 1 103.70004 836.800000
8672 23265 23264 1 103.70004 836.800000
23264 23266 23267 1 119.8800511 375.723200
23264 23266 23268 1 120.0200517 532.790560
23267 23266 23268 1 119.8800511 375.723200
23266 23268 23269 1 119.8800511 375.723200
23266 23268 23270 1 120.0200517 532.790560
23269 23268 23270 1 119.8800511 375.723200
23268 23270 23271 1 119.8800511 375.723200
23268 23270 23272 1 120.0200517 532.790560
23271 23270 23272 1 119.8800511 375.723200
23263 23272 23270 1 120.0200517 532.790560
23263 23272 23273 1 119.8800511 375.723200
23270 23272 23273 1 119.8800511 375.723200
23274 23275 23276 1 119.8800511 375.723200
23274 23275 23284 1 119.8800511 375.723200
23276 23275 23284 1 120.0200517 532.790560
23275 23276 23277 1 121.3800518 83.010560
23275 23276 23278 1 120.0200517 532.790560
23277 23276 23278 1 121.3800518 83.010560
3518 23277 8731 1 109.50000 418.400000
3518 23277 8732 1 109.50000 418.400000
3518 23277 23276 1 103.70004 836.800000
8731 23277 8732 1 109.50000 418.400000
8731 23277 23276 1 103.70004 836.800000
8732 23277 23276 1 103.70004 836.800000
23276 23278 23279 1 119.8800511 375.723200
23276 23278 23280 1 120.0200517 532.790560
23279 23278 23280 1 119.8800511 375.723200
23278 23280 23281 1 119.8800511 375.723200
23278 23280 23282 1 120.0200517 532.790560
23281 23280 23282 1 119.8800511 375.723200
23280 23282 23283 1 119.8800511 375.723200
23280 23282 23284 1 120.0200517 532.790560
23283 23282 23284 1 119.8800511 375.723200
23275 23284 23282 1 120.0200517 532.790560
23275 23284 23285 1 119.8800511 375.723200
23282 23284 23285 1 119.8800511 375.723200
23286 23287 23288 1 119.8800511 375.723200
23286 23287 23296 1 119.8800511 375.723200
23288 23287 23296 1 120.0200517 532.790560
23287 23288 23289 1 121.3800518 83.010560
23287 23288 23290 1 120.0200517 532.790560
23289 23288 23290 1 121.3800518 83.010560
2009 23289 5572 1 109.50000 418.400000
2009 23289 6924 1 109.50000 418.400000
2009 23289 23288 1 103.70004 836.800000
5572 23289 6924 1 109.50000 418.400000
5572 23289 23288 1 103.70004 836.800000
6924 23289 23288 1 103.70004 836.800000
23288 23290 23291 1 119.8800511 375.723200
23288 23290 23292 1 120.0200517 532.790560
23291 23290 23292 1 119.8800511 375.723200
23290 23292 23293 1 119.8800511 375.723200
23290 23292 23294 1 120.0200517 532.790560
23293 23292 23294 1 119.8800511 375.723200
23292 23294 23295 1 119.8800511 375.723200
23292 23294 23296 1 120.0200517 532.790560
23295 23294 23296 1 119.8800511 375.723200
23287 23296 23294 1 120.0200517 532.790560
23287 23296 23297 1 119.8800511 375.723200
23294 23296 23297 1 119.8800511 375.723200
23298 23299 23300 1 119.8800511 375.723200
23298 23299 23308 1 119.8800511 375.723200
23300 23299 23308 1 120.0200517 532.790560
23299 23300 23301 1 121.3800518 83.010560
23299 23300 23302 1 120.0200517 532.790560
23301 23300 23302 1 121.3800518 83.010560
6932 23301 8760 1 109.50000 418.400000
6932 23301 8761 1 109.50000 418.400000
6932 23301 23300 1 103.70004 836.800000
8760 23301 8761 1 109.50000 418.400000
8760 23301 23300 1 103.70004 836.800000
8761 23301 23300 1 103.70004 836.800000
23300 23302 23303 1 119.8800511 375.723200
23300 23302 23304 1 120.0200517 532.790560
23303 23302 23304 1 119.8800511 375.723200
23302 23304 23305 1 119.8800511 375.723200
23302 23304 23306 1 120.0200517 532.790560
23305 23304 23306 1 119.8800511 375.723200
23304 23306 23307 1 119.8800511 375.723200
23304 23306 23308 1 120.0200517 532.790560
23307 23306 23308 1 119.8800511 375.723200
23299 23308 23306 1 120.0200517 532.790560
23299 23308 23309 1 119.8800511 375.723200
23306 23308 23309 1 119.8800511 375.723200
23310 23311 23312 1 119.8800511 375.723200
23310 23311 23320 1 119.8800511 375.723200
23312 23311 23320 1 120.0200517 532.790560
23311 23312 23313 1 121.3800518 83.010560
23311 23312 23314 1 120.0200517 532.790560
23313 23312 23314 1 121.3800518 83.010560
4330 23313 6695 1 109.50000 418.400000
4330 23313 8777 1 109.50000 418.400000
4330 23313 23312 1 103.70004 836.800000
6695 23313 8777 1 109.50000 418.400000
6695 23313 23312 1 103.70004 836.800000
8777 23313 23312 1 103.70004 836.800000
23312 23314 23315 1 119.8800511 375.723200
23312 23314 23316 1 120.0200517 532.790560
23315 23314 23316 1 119.8800511 375.723200
23314 23316 23317 1 119.8800511 375.723200
23314 23316 23318 1 120.0200517 532.790560
23317 23316 23318 1 119.8800511 375.723200
23316 23318 23319 1 119.8800511 375.723200
23316 23318 23320 1 120.0200517 532.790560
23319 23318 23320 1 119.8800511 375.723200
23311 23320 23318 1 120.0200517 532.790560
23311 23320 23321 1 119.8800511 375.723200
23318 23320 23321 1 119.8800511 375.723200
23322 23323 23324 1 119.8800511 375.723200
23322 23323 23332 1 119.8800511 375.723200
23324 23323 23332 1 120.0200517 532.790560
23323 23324 23325 1 121.3800518 83.010560
23323 23324 23326 1 120.0200517 532.790560
23325 23324 23326 1 121.3800518 83.010560
4645 23325 8793 1 109.50000 418.400000
4645 23325 8794 1 109.50000 418.400000
4645 23325 23324 1 103.70004 836.800000
8793 23325 8794 1 109.50000 418.400000
8793 23325 23324 1 103.70004 836.800000
8794 23325 23324 1 103.70004 836.800000
23324 23326 23327 1 119.8800511 375.723200
23324 23326 23328 1 120.0200517 532.790560
23327 23326 23328 1 119.8800511 375.723200
23326 23328 23329 1 119.8800511 375.723200
23326 23328 23330 1 120.0200517 532.790560
23329 23328 23330 1 119.8800511 375.723200
23328 23330 23331 1 119.8800511 375.723200
23328 23330 23332 1 120.0200517 532.790560
23331 23330 23332 1 119.8800511 375.723200
23323 23332 23330 1 120.0200517 532.790560
23323 23332 23333 1 119.8800511 375.723200
23330 23332 23333 1 119.8800511 375.723200
23334 23335 23336 1 119.8800511 375.723200
23334 23335 23344 1 119.8800511 375.723200
23336 23335 23344 1 120.0200517 532.790560
23335 23336 23337 1 121.3800518 83.010560
23335 23336 23338 1 120.0200517 532.790560
23337 23336 23338 1 121.3800518 83.010560
7218 23337 8371 1 109.50000 418.400000
7218 23337 8813 1 109.50000 418.400000
7218 23337 23336 1 103.70004 836.800000
8371 23337 8813 1 109.50000 418.400000
8371 23337 23336 1 103.70004 836.800000
8813 23337 23336 1 103.70004 836.800000
23336 23338 23339 1 119.8800511 375.723200
23336 23338 23340 1 120.0200517 532.790560
23339 23338 23340 1 119.8800511 375.723200
23338 23340 23341 1 119.8800511 375.723200
23338 23340 23342 1 120.0200517 532.790560
23341 23340 23342 1 119.8800511 375.723200
23340 23342 23343 1 119.8800511 375.723200
23340 23342 23344 1 120.0200517 532.790560
23343 23342 23344 1 119.8800511 375.723200
23335 23344 23342 1 120.0200517 532.790560
23335 23344 23345 1 119.8800511 375.723200
23342 23344 23345 1 119.8800511 375.723200
23346 23347 23348 1 119.8800511 375.723200
23346 23347 23356 1 119.8800511 375.723200
23348 23347 23356 1 120.0200517 532.790560
23347 23348 23349 1 121.3800518 83.010560
23347 23348 23350 1 120.0200517 532.790560
23349 23348 23350 1 121.3800518 83.010560
4419 23349 4577 1 109.50000 418.400000
4419 23349 11165 1 109.50000 418.400000
4419 23349 23348 1 103.70004 836.800000
4577 23349 11165 1 109.50000 418.400000
4577 23349 23348 1 103.70004 836.800000
11165 23349 23348 1 103.70004 836.800000
23348 23350 23351 1 119.8800511 375.723200
23348 23350 23352 1 120.0200517 532.790560
23351 23350 23352 1 119.8800511 375.723200
23350 23352 23353 1 119.8800511 375.723200
23350 23352 23354 1 120.0200517 532.790560
23353 23352 23354 1 119.8800511 375.723200
23352 23354 23355 1 119.8800511 375.723200
23352 23354 23356 1 120.0200517 532.790560
23355 23354 23356 1 119.8800511 375.723200
23347 23356 23354 1 120.0200517 532.790560
23347 23356 23357 1 119.8800511 375.723200
23354 23356 23357 1 119.8800511 375.723200
23358 23359 23360 1 119.8800511 375.723200
23358 23359 23368 1 119.8800511 375.723200
23360 23359 23368 1 120.0200517 532.790560
23359 23360 23361 1 121.3800518 83.010560
23359 23360 23362 1 120.0200517 532.790560
23361 23360 23362 1 121.3800518 83.010560
4701 23361 7064 1 109.50000 418.400000
4701 23361 11164 1 109.50000 418.400000
4701 23361 23360 1 103.70004 836.800000
7064 23361 11164 1 109.50000 418.400000
7064 23361 23360 1 103.70004 836.800000
11164 23361 23360 1 103.70004 836.800000
23360 23362 23363 1 119.8800511 375.723200
23360 23362 23364 1 120.0200517 532.790560
23363 23362 23364 1 119.8800511 375.723200
23362 23364 23365 1 119.8800511 375.723200
23362 23364 23366 1 120.0200517 532.790560
23365 23364 23366 1 119.8800511 375.723200
23364 23366 23367 1 119.8800511 375.723200
23364 23366 23368 1 120.0200517 532.790560
23367 23366 23368 1 119.8800511 375.723200
23359 23368 23366 1 120.0200517 532.790560
23359 23368 23369 1 119.8800511 375.723200
23366 23368 23369 1 119.8800511 375.723200
23370 23371 23372 1 119.8800511 375.723200
23370 23371 23380 1 119.8800511 375.723200
23372 23371 23380 1 120.0200517 532.790560
23371 23372 23373 1 121.3800518 83.010560
23371 23372 23374 1 120.0200517 532.790560
23373 23372 23374 1 121.3800518 83.010560
1774 23373 7441 1 109.50000 418.400000
1774 23373 8198 1 109.50000 418.400000
1774 23373 23372 1 103.70004 836.800000
7441 23373 8198 1 109.50000 418.400000
7441 23373 23372 1 103.70004 836.800000
8198 23373 23372 1 103.70004 836.800000
23372 23374 23375 1 119.8800511 375.723200
23372 23374 23376 1 120.0200517 532.790560
23375 23374 23376 1 119.8800511 375.723200
23374 23376 23377 1 119.8800511 375.723200
23374 23376 23378 1 120.0200517 532.790560
23377 23376 23378 1 119.8800511 375.723200
23376 23378 23379 1 119.8800511 375.723200
23376 23378 23380 1 120.0200517 532.790560
23379 23378 23380 1 119.8800511 375.723200
23371 23380 23378 1 120.0200517 532.790560
23371 23380 23381 1 119.8800511 375.723200
23378 23380 23381 1 119.8800511 375.723200
23382 23383 23384 1 119.8800511 375.723200
23382 23383 23392 1 119.8800511 375.723200
23384 23383 23392 1 120.0200517 532.790560
23383 23384 23385 1 121.3800518 83.010560
23383 23384 23386 1 120.0200517 532.790560
23385 23384 23386 1 121.3800518 83.010560
4894 23385 8864 1 109.50000 418.400000
4894 23385 8865 1 109.50000 418.400000
4894 23385 23384 1 103.70004 836.800000
8864 23385 8865 1 109.50000 418.400000
8864 23385 23384 1 103.70004 836.800000
8865 23385 23384 1 103.70004 836.800000
23384 23386 23387 1 119.8800511 375.723200
23384 23386 23388 1 120.0200517 532.790560
23387 23386 23388 1 119.8800511 375.723200
23386 23388 23389 1 119.8800511 375.723200
23386 23388 23390 1 120.0200517 532.790560
23389 23388 23390 1 119.8800511 375.723200
23388 23390 23391 1 119.8800511 375.723200
23388 23390 23392 1 120.0200517 532.790560
23391 23390 23392 1 119.8800511 375.723200
23383 23392 23390 1 120.0200517 532.790560
23383 23392 23393 1 119.8800511 375.723200
23390 23392 23393 1 119.8800511 375.723200
23394 23395 23396 1 119.8800511 375.723200
23394 23395 23404 1 119.8800511 375.723200
23396 23395 23404 1 120.0200517 532.790560
23395 23396 23397 1 121.3800518 83.010560
23395 23396 23398 1 120.0200517 532.790560
23397 23396 23398 1 121.3800518 83.010560
8873 23397 8874 1 109.50000 418.400000
8873 23397 8875 1 109.50000 418.400000
8873 23397 23396 1 103.70004 836.800000
8874 23397 8875 1 109.50000 418.400000
8874 23397 23396 1 103.70004 836.800000
8875 23397 23396 1 103.70004 836.800000
23396 23398 23399 1 119.8800511 375.723200
23396 23398 23400 1 120.0200517 532.790560
23399 23398 23400 1 119.8800511 375.723200
23398 23400 23401 1 119.8800511 375.723200
23398 23400 23402 1 120.0200517 532.790560
23401 23400 23402 1 119.8800511 375.723200
23400 23402 23403 1 119.8800511 375.723200
23400 23402 23404 1 120.0200517 532.790560
23403 23402 23404 1 119.8800511 375.723200
23395 23404 23402 1 120.0200517 532.790560
23395 23404 23405 1 119.8800511 375.723200
23402 23404 23405 1 119.8800511 375.723200
23406 23407 23408 1 119.8800511 375.723200
23406 23407 23416 1 119.8800511 375.723200
23408 23407 23416 1 120.0200517 532.790560
23407 23408 23409 1 121.3800518 83.010560
23407 23408 23410 1 120.0200517 532.790560
23409 23408 23410 1 121.3800518 83.010560
799 23409 1269 1 109.50000 418.400000
799 23409 8876 1 109.50000 418.400000
799 23409 23408 1 103.70004 836.800000
1269 23409 8876 1 109.50000 418.400000
1269 23409 23408 1 103.70004 836.800000
8876 23409 23408 1 103.70004 836.800000
23408 23410 23411 1 119.8800511 375.723200
23408 23410 23412 1 120.0200517 532.790560
23411 23410 23412 1 119.8800511 375.723200
23410 23412 23413 1 119.8800511 375.723200
23410 23412 23414 1 120.0200517 532.790560
23413 23412 23414 1 119.8800511 375.723200
23412 23414 23415 1 119.8800511 375.723200
23412 23414 23416 1 120.0200517 532.790560
23415 23414 23416 1 119.8800511 375.723200
23407 23416 23414 1 120.0200517 532.790560
23407 23416 23417 1 119.8800511 375.723200
23414 23416 23417 1 119.8800511 375.723200
23418 23419 23420 1 119.8800511 375.723200
23418 23419 23428 1 119.8800511 375.723200
23420 23419 23428 1 120.0200517 532.790560
23419 23420 23421 1 121.3800518 83.010560
23419 23420 23422 1 120.0200517 532.790560
23421 23420 23422 1 121.3800518 83.010560
3525 23421 5307 1 109.50000 418.400000
3525 23421 8877 1 109.50000 418.400000
3525 23421 23420 1 103.70004 836.800000
5307 23421 8877 1 109.50000 418.400000
5307 23421 23420 1 103.70004 836.800000
8877 23421 23420 1 103.70004 836.800000
23420 23422 23423 1 119.8800511 375.723200
23420 23422 23424 1 120.0200517 532.790560
23423 23422 23424 1 119.8800511 375.723200
23422 23424 23425 1 119.8800511 375.723200
23422 23424 23426 1 120.0200517 532.790560
23425 23424 23426 1 119.8800511 375.723200
23424 23426 23427 1 119.8800511 375.723200
23424 23426 23428 1 120.0200517 532.790560
23427 23426 23428 1 119.8800511 375.723200
23419 23428 23426 1 120.0200517 532.790560
23419 23428 23429 1 119.8800511 375.723200
23426 23428 23429 1 119.8800511 375.723200
23430 23431 23432 1 119.8800511 375.723200
23430 23431 23440 1 119.8800511 375.723200
23432 23431 23440 1 120.0200517 532.790560
23431 23432 23433 1 121.3800518 83.010560
23431 23432 23434 1 120.0200517 532.790560
23433 23432 23434 1 121.3800518 83.010560
4674 23433 8878 1 109.50000 418.400000
4674 23433 8879 1 109.50000 418.400000
4674 23433 23432 1 103.70004 836.800000
8878 23433 8879 1 109.50000 418.400000
8878 23433 23432 1 103.70004 836.800000
8879 23433 23432 1 103.70004 836.800000
23432 23434 23435 1 119.8800511 375.723200
23432 23434 23436 1 120.0200517 532.790560
23435 23434 23436 1 119.8800511 375.723200
23434 23436 23437 1 119.8800511 375.723200
23434 23436 23438 1 120.0200517 532.790560
23437 23436 23438 1 119.8800511 375.723200
23436 23438 23439 1 119.8800511 375.723200
23436 23438 23440 1 120.0200517 532.790560
23439 23438 23440 1 119.8800511 375.723200
23431 23440 23438 1 120.0200517 532.790560
23431 23440 23441 1 119.8800511 375.723200
23438 23440 23441 1 119.8800511 375.723200
23442 23443 23444 1 119.8800511 375.723200
23442 23443 23452 1 119.8800511 375.723200
23444 23443 23452 1 120.0200517 532.790560
23443 23444 23445 1 121.3800518 83.010560
23443 23444 23446 1 120.0200517 532.790560
23445 23444 23446 1 121.3800518 83.010560
6836 23445 8237 1 109.50000 418.400000
6836 23445 8908 1 109.50000 418.400000
6836 23445 23444 1 103.70004 836.800000
8237 23445 8908 1 109.50000 418.400000
8237 23445 23444 1 103.70004 836.800000
8908 23445 23444 1 103.70004 836.800000
23444 23446 23447 1 119.8800511 375.723200
23444 23446 23448 1 120.0200517 532.790560
23447 23446 23448 1 119.8800511 375.723200
23446 23448 23449 1 119.8800511 375.723200
23446 23448 23450 1 120.0200517 532.790560
23449 23448 23450 1 119.8800511 375.723200
23448 23450 23451 1 119.8800511 375.723200
23448 23450 23452 1 120.0200517 532.790560
23451 23450 23452 1 119.8800511 375.723200
23443 23452 23450 1 120.0200517 532.790560
23443 23452 23453 1 119.8800511 375.723200
23450 23452 23453 1 119.8800511 375.723200
23454 23455 23456 1 119.8800511 375.723200
23454 23455 23464 1 119.8800511 375.723200
23456 23455 23464 1 120.0200517 532.790560
23455 23456 23457 1 121.3800518 83.010560
23455 23456 23458 1 120.0200517 532.790560
23457 23456 23458 1 121.3800518 83.010560
3494 23457 5256 1 109.50000 418.400000
3494 23457 8913 1 109.50000 418.400000
3494 23457 23456 1 103.70004 836.800000
5256 23457 8913 1 109.50000 418.400000
5256 23457 23456 1 103.70004 836.800000
8913 23457 23456 1 103.70004 836.800000
23456 23458 23459 1 119.8800511 375.723200
23456 23458 23460 1 120.0200517 532.790560
23459 23458 23460 1 119.8800511 375.723200
23458 23460 23461 1 119.8800511 375.723200
23458 23460 23462 1 120.0200517 532.790560
23461 23460 23462 1 119.8800511 375.723200
23460 23462 23463 1 119.8800511 375.723200
23460 23462 23464 1 120.0200517 532.790560
23463 23462 23464 1 119.8800511 375.723200
23455 23464 23462 1 120.0200517 532.790560
23455 23464 23465 1 119.8800511 375.723200
23462 23464 23465 1 119.8800511 375.723200
23466 23467 23468 1 119.8800511 375.723200
23466 23467 23476 1 119.8800511 375.723200
23468 23467 23476 1 120.0200517 532.790560
23467 23468 23469 1 121.3800518 83.010560
23467 23468 23470 1 120.0200517 532.790560
23469 23468 23470 1 121.3800518 83.010560
3922 23469 3923 1 109.50000 418.400000
3922 23469 8923 1 109.50000 418.400000
3922 23469 23468 1 103.70004 836.800000
3923 23469 8923 1 109.50000 418.400000
3923 23469 23468 1 103.70004 836.800000
8923 23469 23468 1 103.70004 836.800000
23468 23470 23471 1 119.8800511 375.723200
23468 23470 23472 1 120.0200517 532.790560
23471 23470 23472 1 119.8800511 375.723200
23470 23472 23473 1 119.8800511 375.723200
23470 23472 23474 1 120.0200517 532.790560
23473 23472 23474 1 119.8800511 375.723200
23472 23474 23475 1 119.8800511 375.723200
23472 23474 23476 1 120.0200517 532.790560
23475 23474 23476 1 119.8800511 375.723200
23467 23476 23474 1 120.0200517 532.790560
23467 23476 23477 1 119.8800511 375.723200
23474 23476 23477 1 119.8800511 375.723200
23478 23479 23480 1 119.8800511 375.723200
23478 23479 23488 1 119.8800511 375.723200
23480 23479 23488 1 120.0200517 532.790560
23479 23480 23481 1 121.3800518 83.010560
23479 23480 23482 1 120.0200517 532.790560
23481 23480 23482 1 121.3800518 83.010560
1939 23481 2165 1 109.50000 418.400000
1939 23481 7449 1 109.50000 418.400000
1939 23481 23480 1 103.70004 836.800000
2165 23481 7449 1 109.50000 418.400000
2165 23481 23480 1 103.70004 836.800000
7449 23481 23480 1 103.70004 836.800000
23480 23482 23483 1 119.8800511 375.723200
23480 23482 23484 1 120.0200517 532.790560
23483 23482 23484 1 119.8800511 375.723200
23482 23484 23485 1 119.8800511 375.723200
23482 23484 23486 1 120.0200517 532.790560
23485 23484 23486 1 119.8800511 375.723200
23484 23486 23487 1 119.8800511 375.723200
23484 23486 23488 1 120.0200517 532.790560
23487 23486 23488 1 119.8800511 375.723200
23479 23488 23486 1 120.0200517 532.790560
23479 23488 23489 1 119.8800511 375.723200
23486 23488 23489 1 119.8800511 375.723200
23490 23491 23492 1 119.8800511 375.723200
23490 23491 23500 1 119.8800511 375.723200
23492 23491 23500 1 120.0200517 532.790560
23491 23492 23493 1 121.3800518 83.010560
23491 23492 23494 1 120.0200517 532.790560
23493 23492 23494 1 121.3800518 83.010560
7510 23493 8407 1 109.50000 418.400000
7510 23493 8927 1 109.50000 418.400000
7510 23493 23492 1 103.70004 836.800000
8407 23493 8927 1 109.50000 418.400000
8407 23493 23492 1 103.70004 836.800000
8927 23493 23492 1 103.70004 836.800000
23492 23494 23495 1 119.8800511 375.723200
23492 23494 23496 1 120.0200517 532.790560
23495 23494 23496 1 119.8800511 375.723200
23494 23496 23497 1 119.8800511 375.723200
23494 23496 23498 1 120.0200517 532.790560
23497 23496 23498 1 119.8800511 375.723200
23496 23498 23499 1 119.8800511 375.723200
23496 23498 23500 1 120.0200517 532.790560
23499 23498 23500 1 119.8800511 375.723200
23491 23500 23498 1 120.0200517 532.790560
23491 23500 23501 1 119.8800511 375.723200
23498 23500 23501 1 119.8800511 375.723200
23502 23503 23504 1 119.8800511 375.723200
23502 23503 23512 1 119.8800511 375.723200
23504 23503 23512 1 120.0200517 532.790560
23503 23504 23505 1 121.3800518 83.010560
23503 23504 23506 1 120.0200517 532.790560
23505 23504 23506 1 121.3800518 83.010560
6310 23505 6568 1 109.50000 418.400000
6310 23505 8942 1 109.50000 418.400000
6310 23505 23504 1 103.70004 836.800000
6568 23505 8942 1 109.50000 418.400000
6568 23505 23504 1 103.70004 836.800000
8942 23505 23504 1 103.70004 836.800000
23504 23506 23507 1 119.8800511 375.723200
23504 23506 23508 1 120.0200517 532.790560
23507 23506 23508 1 119.8800511 375.723200
23506 23508 23509 1 119.8800511 375.723200
23506 23508 23510 1 120.0200517 532.790560
23509 23508 23510 1 119.8800511 375.723200
23508 23510 23511 1 119.8800511 375.723200
23508 23510 23512 1 120.0200517 532.790560
23511 23510 23512 1 119.8800511 375.723200
23503 23512 23510 1 120.0200517 532.790560
23503 23512 23513 1 119.8800511 375.723200
23510 23512 23513 1 119.8800511 375.723200
23514 23515 23516 1 119.8800511 375.723200
23514 23515 23524 1 119.8800511 375.723200
23516 23515 23524 1 120.0200517 532.790560
23515 23516 23517 1 121.3800518 83.010560
23515 23516 23518 1 120.0200517 532.790560
23517 23516 23518 1 121.3800518 83.010560
7288 23517 8084 1 109.50000 418.400000
7288 23517 8961 1 109.50000 418.400000
7288 23517 23516 1 103.70004 836.800000
8084 23517 8961 1 109.50000 418.400000
8084 23517 23516 1 103.70004 836.800000
8961 23517 23516 1 103.70004 836.800000
23516 23518 23519 1 119.8800511 375.723200
23516 23518 23520 1 120.0200517 532.790560
23519 23518 23520 1 119.8800511 375.723200
23518 23520 23521 1 119.8800511 375.723200
23518 23520 23522 1 120.0200517 532.790560
23521 23520 23522 1 119.8800511 375.723200
23520 23522 23523 1 119.8800511 375.723200
23520 23522 23524 1 120.0200517 532.790560
23523 23522 23524 1 119.8800511 375.723200
23515 23524 23522 1 120.0200517 532.790560
23515 23524 23525 1 119.8800511 375.723200
23522 23524 23525 1 119.8800511 375.723200
23526 23527 23528 1 119.8800511 375.723200
23526 23527 23536 1 119.8800511 375.723200
23528 23527 23536 1 120.0200517 532.790560
23527 23528 23529 1 121.3800518 83.010560
23527 23528 23530 1 120.0200517 532.790560
23529 23528 23530 1 121.3800518 83.010560
3333 23529 3930 1 109.50000 418.400000
3333 23529 8975 1 109.50000 418.400000
3333 23529 23528 1 103.70004 836.800000
3930 23529 8975 1 109.50000 418.400000
3930 23529 23528 1 103.70004 836.800000
8975 23529 23528 1 103.70004 836.800000
23528 23530 23531 1 119.8800511 375.723200
23528 23530 23532 1 120.0200517 532.790560
23531 23530 23532 1 119.8800511 375.723200
23530 23532 23533 1 119.8800511 375.723200
23530 23532 23534 1 120.0200517 532.790560
23533 23532 23534 1 119.8800511 375.723200
23532 23534 23535 1 119.8800511 375.723200
23532 23534 23536 1 120.0200517 532.790560
23535 23534 23536 1 119.8800511 375.723200
23527 23536 23534 1 120.0200517 532.790560
23527 23536 23537 1 119.8800511 375.723200
23534 23536 23537 1 119.8800511 375.723200
23538 23539 23540 1 119.8800511 375.723200
23538 23539 23548 1 119.8800511 375.723200
23540 23539 23548 1 120.0200517 532.790560
23539 23540 23541 1 121.3800518 83.010560
23539 23540 23542 1 120.0200517 532.790560
23541 23540 23542 1 121.3800518 83.010560
3772 23541 6488 1 109.50000 418.400000
3772 23541 8990 1 109.50000 418.400000
3772 23541 23540 1 103.70004 836.800000
6488 23541 8990 1 109.50000 418.400000
6488 23541 23540 1 103.70004 836.800000
8990 23541 23540 1 103.70004 836.800000
23540 23542 23543 1 119.8800511 375.723200
23540 23542 23544 1 120.0200517 532.790560
23543 23542 23544 1 119.8800511 375.723200
23542 23544 23545 1 119.8800511 375.723200
23542 23544 23546 1 120.0200517 532.790560
23545 23544 23546 1 119.8800511 375.723200
23544 23546 23547 1 119.8800511 375.723200
23544 23546 23548 1 120.0200517 532.790560
23547 23546 23548 1 119.8800511 375.723200
23539 23548 23546 1 120.0200517 532.790560
23539 23548 23549 1 119.8800511 375.723200
23546 23548 23549 1 119.8800511 375.723200
23550 23551 23552 1 119.8800511 375.723200
23550 23551 23560 1 119.8800511 375.723200
23552 23551 23560 1 120.0200517 532.790560
23551 23552 23553 1 121.3800518 83.010560
23551 23552 23554 1 120.0200517 532.790560
23553 23552 23554 1 121.3800518 83.010560
3983 23553 5833 1 109.50000 418.400000
3983 23553 9005 1 109.50000 418.400000
3983 23553 23552 1 103.70004 836.800000
5833 23553 9005 1 109.50000 418.400000
5833 23553 23552 1 103.70004 836.800000
9005 23553 23552 1 103.70004 836.800000
23552 23554 23555 1 119.8800511 375.723200
23552 23554 23556 1 120.0200517 532.790560
23555 23554 23556 1 119.8800511 375.723200
23554 23556 23557 1 119.8800511 375.723200
23554 23556 23558 1 120.0200517 532.790560
23557 23556 23558 1 119.8800511 375.723200
23556 23558 23559 1 119.8800511 375.723200
23556 23558 23560 1 120.0200517 532.790560
23559 23558 23560 1 119.8800511 375.723200
23551 23560 23558 1 120.0200517 532.790560
23551 23560 23561 1 119.8800511 375.723200
23558 23560 23561 1 119.8800511 375.723200
23562 23563 23564 1 119.8800511 375.723200
23562 23563 23572 1 119.8800511 375.723200
23564 23563 23572 1 120.0200517 532.790560
23563 23564 23565 1 121.3800518 83.010560
23563 23564 23566 1 120.0200517 532.790560
23565 23564 23566 1 121.3800518 83.010560
3845 23565 4340 1 109.50000 418.400000
3845 23565 9010 1 109.50000 418.400000
3845 23565 23564 1 103.70004 836.800000
4340 23565 9010 1 109.50000 418.400000
4340 23565 23564 1 103.70004 836.800000
9010 23565 23564 1 103.70004 836.800000
23564 23566 23567 1 119.8800511 375.723200
23564 23566 23568 1 120.0200517 532.790560
23567 23566 23568 1 119.8800511 375.723200
23566 23568 23569 1 119.8800511 375.723200
23566 23568 23570 1 120.0200517 532.790560
23569 23568 23570 1 119.8800511 375.723200
23568 23570 23571 1 119.8800511 375.723200
23568 23570 23572 1 120.0200517 532.790560
23571 23570 23572 1 119.8800511 375.723200
23563 23572 23570 1 120.0200517 532.790560
23563 23572 23573 1 119.8800511 375.723200
23570 23572 23573 1 119.8800511 375.723200
23574 23575 23576 1 119.8800511 375.723200
23574 23575 23584 1 119.8800511 375.723200
23576 23575 23584 1 120.0200517 532.790560
23575 23576 23577 1 121.3800518 83.010560
23575 23576 23578 1 120.0200517 532.790560
23577 23576 23578 1 121.3800518 83.010560
75 23577 9011 1 109.50000 418.400000
75 23577 9012 1 109.50000 418.400000
75 23577 23576 1 103.70004 836.800000
9011 23577 9012 1 109.50000 418.400000
9011 23577 23576 1 103.70004 836.800000
9012 23577 23576 1 103.70004 836.800000
23576 23578 23579 1 119.8800511 375.723200
23576 23578 23580 1 120.0200517 532.790560
23579 23578 23580 1 119.8800511 375.723200
23578 23580 23581 1 119.8800511 375.723200
23578 23580 23582 1 120.0200517 532.790560
23581 23580 23582 1 119.8800511 375.723200
23580 23582 23583 1 119.8800511 375.723200
23580 23582 23584 1 120.0200517 532.790560
23583 23582 23584 1 119.8800511 375.723200
23575 23584 23582 1 120.0200517 532.790560
23575 23584 23585 1 119.8800511 375.723200
23582 23584 23585 1 119.8800511 375.723200
23586 23587 23588 1 119.8800511 375.723200
23586 23587 23596 1 119.8800511 375.723200
23588 23587 23596 1 120.0200517 532.790560
23587 23588 23589 1 121.3800518 83.010560
23587 23588 23590 1 120.0200517 532.790560
23589 23588 23590 1 121.3800518 83.010560
5344 23589 9024 1 109.50000 418.400000
5344 23589 9025 1 109.50000 418.400000
5344 23589 23588 1 103.70004 836.800000
9024 23589 9025 1 109.50000 418.400000
9024 23589 23588 1 103.70004 836.800000
9025 23589 23588 1 103.70004 836.800000
23588 23590 23591 1 119.8800511 375.723200
23588 23590 23592 1 120.0200517 532.790560
23591 23590 23592 1 119.8800511 375.723200
23590 23592 23593 1 119.8800511 375.723200
23590 23592 23594 1 120.0200517 532.790560
23593 23592 23594 1 119.8800511 375.723200
23592 23594 23595 1 119.8800511 375.723200
23592 23594 23596 1 120.0200517 532.790560
23595 23594 23596 1 119.8800511 375.723200
23587 23596 23594 1 120.0200517 532.790560
23587 23596 23597 1 119.8800511 375.723200
23594 23596 23597 1 119.8800511 375.723200
23598 23599 23600 1 119.8800511 375.723200
23598 23599 23608 1 119.8800511 375.723200
23600 23599 23608 1 120.0200517 532.790560
23599 23600 23601 1 121.3800518 83.010560
23599 23600 23602 1 120.0200517 532.790560
23601 23600 23602 1 121.3800518 83.010560
3443 23601 8413 1 109.50000 418.400000
3443 23601 9048 1 109.50000 418.400000
3443 23601 23600 1 103.70004 836.800000
8413 23601 9048 1 109.50000 418.400000
8413 23601 23600 1 103.70004 836.800000
9048 23601 23600 1 103.70004 836.800000
23600 23602 23603 1 119.8800511 375.723200
23600 23602 23604 1 120.0200517 532.790560
23603 23602 23604 1 119.8800511 375.723200
23602 23604 23605 1 119.8800511 375.723200
23602 23604 23606 1 120.0200517 532.790560
23605 23604 23606 1 119.8800511 375.723200
23604 23606 23607 1 119.8800511 375.723200
23604 23606 23608 1 120.0200517 532.790560
23607 23606 23608 1 119.8800511 375.723200
23599 23608 23606 1 120.0200517 532.790560
23599 23608 23609 1 119.8800511 375.723200
23606 23608 23609 1 119.8800511 375.723200
23610 23611 23612 1 119.8800511 375.723200
23610 23611 23620 1 119.8800511 375.723200
23612 23611 23620 1 120.0200517 532.790560
23611 23612 23613 1 121.3800518 83.010560
23611 23612 23614 1 120.0200517 532.790560
23613 23612 23614 1 121.3800518 83.010560
1563 23613 9054 1 109.50000 418.400000
1563 23613 9055 1 109.50000 418.400000
1563 23613 23612 1 103.70004 836.800000
9054 23613 9055 1 109.50000 418.400000
9054 23613 23612 1 103.70004 836.800000
9055 23613 23612 1 103.70004 836.800000
23612 23614 23615 1 119.8800511 375.723200
23612 23614 23616 1 120.0200517 532.790560
23615 23614 23616 1 119.8800511 375.723200
23614 23616 23617 1 119.8800511 375.723200
23614 23616 23618 1 120.0200517 532.790560
23617 23616 23618 1 119.8800511 375.723200
23616 23618 23619 1 119.8800511 375.723200
23616 23618 23620 1 120.0200517 532.790560
23619 23618 23620 1 119.8800511 375.723200
23611 23620 23618 1 120.0200517 532.790560
23611 23620 23621 1 119.8800511 375.723200
23618 23620 23621 1 119.8800511 375.723200
23622 23623 23624 1 119.8800511 375.723200
23622 23623 23632 1 119.8800511 375.723200
23624 23623 23632 1 120.0200517 532.790560
23623 23624 23625 1 121.3800518 83.010560
23623 23624 23626 1 120.0200517 532.790560
23625 23624 23626 1 121.3800518 83.010560
5133 23625 9067 1 109.50000 418.400000
5133 23625 11167 1 109.50000 418.400000
5133 23625 23624 1 103.70004 836.800000
9067 23625 11167 1 109.50000 418.400000
9067 23625 23624 1 103.70004 836.800000
11167 23625 23624 1 103.70004 836.800000
23624 23626 23627 1 119.8800511 375.723200
23624 23626 23628 1 120.0200517 532.790560
23627 23626 23628 1 119.8800511 375.723200
23626 23628 23629 1 119.8800511 375.723200
23626 23628 23630 1 120.0200517 532.790560
23629 23628 23630 1 119.8800511 375.723200
23628 23630 23631 1 119.8800511 375.723200
23628 23630 23632 1 120.0200517 532.790560
23631 23630 23632 1 119.8800511 375.723200
23623 23632 23630 1 120.0200517 532.790560
23623 23632 23633 1 119.8800511 375.723200
23630 23632 23633 1 119.8800511 375.723200
23634 23635 23636 1 119.8800511 375.723200
23634 23635 23644 1 119.8800511 375.723200
23636 23635 23644 1 120.0200517 532.790560
23635 23636 23637 1 121.3800518 83.010560
23635 23636 23638 1 120.0200517 532.790560
23637 23636 23638 1 121.3800518 83.010560
9088 23637 9089 1 109.50000 418.400000
9088 23637 9090 1 109.50000 418.400000
9088 23637 23636 1 103.70004 836.800000
9089 23637 9090 1 109.50000 418.400000
9089 23637 23636 1 103.70004 836.800000
9090 23637 23636 1 103.70004 836.800000
23636 23638 23639 1 119.8800511 375.723200
23636 23638 23640 1 120.0200517 532.790560
23639 23638 23640 1 119.8800511 375.723200
23638 23640 23641 1 119.8800511 375.723200
23638 23640 23642 1 120.0200517 532.790560
23641 23640 23642 1 119.8800511 375.723200
23640 23642 23643 1 119.8800511 375.723200
23640 23642 23644 1 120.0200517 532.790560
23643 23642 23644 1 119.8800511 375.723200
23635 23644 23642 1 120.0200517 532.790560
23635 23644 23645 1 119.8800511 375.723200
23642 23644 23645 1 119.8800511 375.723200
23646 23647 23648 1 119.8800511 375.723200
23646 23647 23656 1 119.8800511 375.723200
23648 23647 23656 1 120.0200517 532.790560
23647 23648 23649 1 121.3800518 83.010560
23647 23648 23650 1 120.0200517 532.790560
23649 23648 23650 1 121.3800518 83.010560
74 23649 9103 1 109.50000 418.400000
74 23649 9104 1 109.50000 418.400000
74 23649 23648 1 103.70004 836.800000
9103 23649 9104 1 109.50000 418.400000
9103 23649 23648 1 103.70004 836.800000
9104 23649 23648 1 103.70004 836.800000
23648 23650 23651 1 119.8800511 375.723200
23648 23650 23652 1 120.0200517 532.790560
23651 23650 23652 1 119.8800511 375.723200
23650 23652 23653 1 119.8800511 375.723200
23650 23652 23654 1 120.0200517 532.790560
23653 23652 23654 1 119.8800511 375.723200
23652 23654 23655 1 119.8800511 375.723200
23652 23654 23656 1 120.0200517 532.790560
23655 23654 23656 1 119.8800511 375.723200
23647 23656 23654 1 120.0200517 532.790560
23647 23656 23657 1 119.8800511 375.723200
23654 23656 23657 1 119.8800511 375.723200
23658 23659 23660 1 119.8800511 375.723200
23658 23659 23668 1 119.8800511 375.723200
23660 23659 23668 1 120.0200517 532.790560
23659 23660 23661 1 121.3800518 83.010560
23659 23660 23662 1 120.0200517 532.790560
23661 23660 23662 1 121.3800518 83.010560
3223 23661 9139 1 109.50000 418.400000
3223 23661 9140 1 109.50000 418.400000
3223 23661 23660 1 103.70004 836.800000
9139 23661 9140 1 109.50000 418.400000
9139 23661 23660 1 103.70004 836.800000
9140 23661 23660 1 103.70004 836.800000
23660 23662 23663 1 119.8800511 375.723200
23660 23662 23664 1 120.0200517 532.790560
23663 23662 23664 1 119.8800511 375.723200
23662 23664 23665 1 119.8800511 375.723200
23662 23664 23666 1 120.0200517 532.790560
23665 23664 23666 1 119.8800511 375.723200
23664 23666 23667 1 119.8800511 375.723200
23664 23666 23668 1 120.0200517 532.790560
23667 23666 23668 1 119.8800511 375.723200
23659 23668 23666 1 120.0200517 532.790560
23659 23668 23669 1 119.8800511 375.723200
23666 23668 23669 1 119.8800511 375.723200
23670 23671 23672 1 119.8800511 375.723200
23670 23671 23680 1 119.8800511 375.723200
23672 23671 23680 1 120.0200517 532.790560
23671 23672 23673 1 121.3800518 83.010560
23671 23672 23674 1 120.0200517 532.790560
23673 23672 23674 1 121.3800518 83.010560
3880 23673 9143 1 109.50000 418.400000
3880 23673 9144 1 109.50000 418.400000
3880 23673 23672 1 103.70004 836.800000
9143 23673 9144 1 109.50000 418.400000
9143 23673 23672 1 103.70004 836.800000
9144 23673 23672 1 103.70004 836.800000
23672 23674 23675 1 119.8800511 375.723200
23672 23674 23676 1 120.0200517 532.790560
23675 23674 23676 1 119.8800511 375.723200
23674 23676 23677 1 119.8800511 375.723200
23674 23676 23678 1 120.0200517 532.790560
23677 23676 23678 1 119.8800511 375.723200
23676 23678 23679 1 119.8800511 375.723200
23676 23678 23680 1 120.0200517 532.790560
23679 23678 23680 1 119.8800511 375.723200
23671 23680 23678 1 120.0200517 532.790560
23671 23680 23681 1 119.8800511 375.723200
23678 23680 23681 1 119.8800511 375.723200
23682 23683 23684 1 119.8800511 375.723200
23682 23683 23692 1 119.8800511 375.723200
23684 23683 23692 1 120.0200517 532.790560
23683 23684 23685 1 121.3800518 83.010560
23683 23684 23686 1 120.0200517 532.790560
23685 23684 23686 1 121.3800518 83.010560
5216 23685 7142 1 109.50000 418.400000
5216 23685 7842 1 109.50000 418.400000
5216 23685 23684 1 103.70004 836.800000
7142 23685 7842 1 109.50000 418.400000
7142 23685 23684 1 103.70004 836.800000
7842 23685 23684 1 103.70004 836.800000
23684 23686 23687 1 119.8800511 375.723200
23684 23686 23688 1 120.0200517 532.790560
23687 23686 23688 1 119.8800511 375.723200
23686 23688 23689 1 119.8800511 375.723200
23686 23688 23690 1 120.0200517 532.790560
23689 23688 23690 1 119.8800511 375.723200
23688 23690 23691 1 119.8800511 375.723200
23688 23690 23692 1 120.0200517 532.790560
23691 23690 23692 1 119.8800511 375.723200
23683 23692 23690 1 120.0200517 532.790560
23683 23692 23693 1 119.8800511 375.723200
23690 23692 23693 1 119.8800511 375.723200
23694 23695 23696 1 119.8800511 375.723200
23694 23695 23704 1 119.8800511 375.723200
23696 23695 23704 1 120.0200517 532.790560
23695 23696 23697 1 121.3800518 83.010560
23695 23696 23698 1 120.0200517 532.790560
23697 23696 23698 1 121.3800518 83.010560
6073 23697 6173 1 109.50000 418.400000
6073 23697 9168 1 109.50000 418.400000
6073 23697 23696 1 103.70004 836.800000
6173 23697 9168 1 109.50000 418.400000
6173 23697 23696 1 103.70004 836.800000
9168 23697 23696 1 103.70004 836.800000
23696 23698 23699 1 119.8800511 375.723200
23696 23698 23700 1 120.0200517 532.790560
23699 23698 23700 1 119.8800511 375.723200
23698 23700 23701 1 119.8800511 375.723200
23698 23700 23702 1 120.0200517 532.790560
23701 23700 23702 1 119.8800511 375.723200
23700 23702 23703 1 119.8800511 375.723200
23700 23702 23704 1 120.0200517 532.790560
23703 23702 23704 1 119.8800511 375.723200
23695 23704 23702 1 120.0200517 532.790560
23695 23704 23705 1 119.8800511 375.723200
23702 23704 23705 1 119.8800511 375.723200
23706 23707 23708 1 119.8800511 375.723200
23706 23707 23716 1 119.8800511 375.723200
23708 23707 23716 1 120.0200517 532.790560
23707 23708 23709 1 121.3800518 83.010560
23707 23708 23710 1 120.0200517 532.790560
23709 23708 23710 1 121.3800518 83.010560
4391 23709 4392 1 109.50000 418.400000
4391 23709 7180 1 109.50000 418.400000
4391 23709 23708 1 103.70004 836.800000
4392 23709 7180 1 109.50000 418.400000
4392 23709 23708 1 103.70004 836.800000
7180 23709 23708 1 103.70004 836.800000
23708 23710 23711 1 119.8800511 375.723200
23708 23710 23712 1 120.0200517 532.790560
23711 23710 23712 1 119.8800511 375.723200
23710 23712 23713 1 119.8800511 375.723200
23710 23712 23714 1 120.0200517 532.790560
23713 23712 23714 1 119.8800511 375.723200
23712 23714 23715 1 119.8800511 375.723200
23712 23714 23716 1 120.0200517 532.790560
23715 23714 23716 1 119.8800511 375.723200
23707 23716 23714 1 120.0200517 532.790560
23707 23716 23717 1 119.8800511 375.723200
23714 23716 23717 1 119.8800511 375.723200
23718 23719 23720 1 119.8800511 375.723200
23718 23719 23728 1 119.8800511 375.723200
23720 23719 23728 1 120.0200517 532.790560
23719 23720 23721 1 121.3800518 83.010560
23719 23720 23722 1 120.0200517 532.790560
23721 23720 23722 1 121.3800518 83.010560
9189 23721 9190 1 109.50000 418.400000
9189 23721 9191 1 109.50000 418.400000
9189 23721 23720 1 103.70004 836.800000
9190 23721 9191 1 109.50000 418.400000
9190 23721 23720 1 103.70004 836.800000
9191 23721 23720 1 103.70004 836.800000
23720 23722 23723 1 119.8800511 375.723200
23720 23722 23724 1 120.0200517 532.790560
23723 23722 23724 1 119.8800511 375.723200
23722 23724 23725 1 119.8800511 375.723200
23722 23724 23726 1 120.0200517 532.790560
23725 23724 23726 1 119.8800511 375.723200
23724 23726 23727 1 119.8800511 375.723200
23724 23726 23728 1 120.0200517 532.790560
23727 23726 23728 1 119.8800511 375.723200
23719 23728 23726 1 120.0200517 532.790560
23719 23728 23729 1 119.8800511 375.723200
23726 23728 23729 1 119.8800511 375.723200
23730 23731 23732 1 119.8800511 375.723200
23730 23731 23740 1 119.8800511 375.723200
23732 23731 23740 1 120.0200517 532.790560
23731 23732 23733 1 121.3800518 83.010560
23731 23732 23734 1 120.0200517 532.790560
23733 23732 23734 1 121.3800518 83.010560
4691 23733 5963 1 109.50000 418.400000
4691 23733 5965 1 109.50000 418.400000
4691 23733 23732 1 103.70004 836.800000
5963 23733 5965 1 109.50000 418.400000
5963 23733 23732 1 103.70004 836.800000
5965 23733 23732 1 103.70004 836.800000
23732 23734 23735 1 119.8800511 375.723200
23732 23734 23736 1 120.0200517 532.790560
23735 23734 23736 1 119.8800511 375.723200
23734 23736 23737 1 119.8800511 375.723200
23734 23736 23738 1 120.0200517 532.790560
23737 23736 23738 1 119.8800511 375.723200
23736 23738 23739 1 119.8800511 375.723200
23736 23738 23740 1 120.0200517 532.790560
23739 23738 23740 1 119.8800511 375.723200
23731 23740 23738 1 120.0200517 532.790560
23731 23740 23741 1 119.8800511 375.723200
23738 23740 23741 1 119.8800511 375.723200
23742 23743 23744 1 119.8800511 375.723200
23742 23743 23752 1 119.8800511 375.723200
23744 23743 23752 1 120.0200517 532.790560
23743 23744 23745 1 121.3800518 83.010560
23743 23744 23746 1 120.0200517 532.790560
23745 23744 23746 1 121.3800518 83.010560
6350 23745 6380 1 109.50000 418.400000
6350 23745 9254 1 109.50000 418.400000
6350 23745 23744 1 103.70004 836.800000
6380 23745 9254 1 109.50000 418.400000
6380 23745 23744 1 103.70004 836.800000
9254 23745 23744 1 103.70004 836.800000
23744 23746 23747 1 119.8800511 375.723200
23744 23746 23748 1 120.0200517 532.790560
23747 23746 23748 1 119.8800511 375.723200
23746 23748 23749 1 119.8800511 375.723200
23746 23748 23750 1 120.0200517 532.790560
23749 23748 23750 1 119.8800511 375.723200
23748 23750 23751 1 119.8800511 375.723200
23748 23750 23752 1 120.0200517 532.790560
23751 23750 23752 1 119.8800511 375.723200
23743 23752 23750 1 120.0200517 532.790560
23743 23752 23753 1 119.8800511 375.723200
23750 23752 23753 1 119.8800511 375.723200
23754 23755 23756 1 119.8800511 375.723200
23754 23755 23764 1 119.8800511 375.723200
23756 23755 23764 1 120.0200517 532.790560
23755 23756 23757 1 121.3800518 83.010560
23755 23756 23758 1 120.0200517 532.790560
23757 23756 23758 1 121.3800518 83.010560
1889 23757 7433 1 109.50000 418.400000
1889 23757 9269 1 109.50000 418.400000
1889 23757 23756 1 103.70004 836.800000
7433 23757 9269 1 109.50000 418.400000
7433 23757 23756 1 103.70004 836.800000
9269 23757 23756 1 103.70004 836.800000
23756 23758 23759 1 119.8800511 375.723200
23756 23758 23760 1 120.0200517 532.790560
23759 23758 23760 1 119.8800511 375.723200
23758 23760 23761 1 119.8800511 375.723200
23758 23760 23762 1 120.0200517 532.790560
23761 23760 23762 1 119.8800511 375.723200
23760 23762 23763 1 119.8800511 375.723200
23760 23762 23764 1 120.0200517 532.790560
23763 23762 23764 1 119.8800511 375.723200
23755 23764 23762 1 120.0200517 532.790560
23755 23764 23765 1 119.8800511 375.723200
23762 23764 23765 1 119.8800511 375.723200
23766 23767 23768 1 119.8800511 375.723200
23766 23767 23776 1 119.8800511 375.723200
23768 23767 23776 1 120.0200517 532.790560
23767 23768 23769 1 121.3800518 83.010560
23767 23768 23770 1 120.0200517 532.790560
23769 23768 23770 1 121.3800518 83.010560
4515 23769 8601 1 109.50000 418.400000
4515 23769 9276 1 109.50000 418.400000
4515 23769 23768 1 103.70004 836.800000
8601 23769 9276 1 109.50000 418.400000
8601 23769 23768 1 103.70004 836.800000
9276 23769 23768 1 103.70004 836.800000
23768 23770 23771 1 119.8800511 375.723200
23768 23770 23772 1 120.0200517 532.790560
23771 23770 23772 1 119.8800511 375.723200
23770 23772 23773 1 119.8800511 375.723200
23770 23772 23774 1 120.0200517 532.790560
23773 23772 23774 1 119.8800511 375.723200
23772 23774 23775 1 119.8800511 375.723200
23772 23774 23776 1 120.0200517 532.790560
23775 23774 23776 1 119.8800511 375.723200
23767 23776 23774 1 120.0200517 532.790560
23767 23776 23777 1 119.8800511 375.723200
23774 23776 23777 1 119.8800511 375.723200
23778 23779 23780 1 119.8800511 375.723200
23778 23779 23788 1 119.8800511 375.723200
23780 23779 23788 1 120.0200517 532.790560
23779 23780 23781 1 121.3800518 83.010560
23779 23780 23782 1 120.0200517 532.790560
23781 23780 23782 1 121.3800518 83.010560
3101 23781 7657 1 109.50000 418.400000
3101 23781 9284 1 109.50000 418.400000
3101 23781 23780 1 103.70004 836.800000
7657 23781 9284 1 109.50000 418.400000
7657 23781 23780 1 103.70004 836.800000
9284 23781 23780 1 103.70004 836.800000
23780 23782 23783 1 119.8800511 375.723200
23780 23782 23784 1 120.0200517 532.790560
23783 23782 23784 1 119.8800511 375.723200
23782 23784 23785 1 119.8800511 375.723200
23782 23784 23786 1 120.0200517 532.790560
23785 23784 23786 1 119.8800511 375.723200
23784 23786 23787 1 119.8800511 375.723200
23784 23786 23788 1 120.0200517 532.790560
23787 23786 23788 1 119.8800511 375.723200
23779 23788 23786 1 120.0200517 532.790560
23779 23788 23789 1 119.8800511 375.723200
23786 23788 23789 1 119.8800511 375.723200
23790 23791 23792 1 119.8800511 375.723200
23790 23791 23800 1 119.8800511 375.723200
23792 23791 23800 1 120.0200517 532.790560
23791 23792 23793 1 121.3800518 83.010560
23791 23792 23794 1 120.0200517 532.790560
23793 23792 23794 1 121.3800518 83.010560
3220 23793 8389 1 109.50000 418.400000
3220 23793 9286 1 109.50000 418.400000
3220 23793 23792 1 103.70004 836.800000
8389 23793 9286 1 109.50000 418.400000
8389 23793 23792 1 103.70004 836.800000
9286 23793 23792 1 103.70004 836.800000
23792 23794 23795 1 119.8800511 375.723200
23792 23794 23796 1 120.0200517 532.790560
23795 23794 23796 1 119.8800511 375.723200
23794 23796 23797 1 119.8800511 375.723200
23794 23796 23798 1 120.0200517 532.790560
23797 23796 23798 1 119.8800511 375.723200
23796 23798 23799 1 119.8800511 375.723200
23796 23798 23800 1 120.0200517 532.790560
23799 23798 23800 1 119.8800511 375.723200
23791 23800 23798 1 120.0200517 532.790560
23791 23800 23801 1 119.8800511 375.723200
23798 23800 23801 1 119.8800511 375.723200
23802 23803 23804 1 119.8800511 375.723200
23802 23803 23812 1 119.8800511 375.723200
23804 23803 23812 1 120.0200517 532.790560
23803 23804 23805 1 121.3800518 83.010560
23803 23804 23806 1 120.0200517 532.790560
23805 23804 23806 1 121.3800518 83.010560
8368 23805 9054 1 109.50000 418.400000
8368 23805 9348 1 109.50000 418.400000
8368 23805 23804 1 103.70004 836.800000
9054 23805 9348 1 109.50000 418.400000
9054 23805 23804 1 103.70004 836.800000
9348 23805 23804 1 103.70004 836.800000
23804 23806 23807 1 119.8800511 375.723200
23804 23806 23808 1 120.0200517 532.790560
23807 23806 23808 1 119.8800511 375.723200
23806 23808 23809 1 119.8800511 375.723200
23806 23808 23810 1 120.0200517 532.790560
23809 23808 23810 1 119.8800511 375.723200
23808 23810 23811 1 119.8800511 375.723200
23808 23810 23812 1 120.0200517 532.790560
23811 23810 23812 1 119.8800511 375.723200
23803 23812 23810 1 120.0200517 532.790560
23803 23812 23813 1 119.8800511 375.723200
23810 23812 23813 1 119.8800511 375.723200
23814 23815 23816 1 119.8800511 375.723200
23814 23815 23824 1 119.8800511 375.723200
23816 23815 23824 1 120.0200517 532.790560
23815 23816 23817 1 121.3800518 83.010560
23815 23816 23818 1 120.0200517 532.790560
23817 23816 23818 1 121.3800518 83.010560
6335 23817 6384 1 109.50000 418.400000
6335 23817 9353 1 109.50000 418.400000
6335 23817 23816 1 103.70004 836.800000
6384 23817 9353 1 109.50000 418.400000
6384 23817 23816 1 103.70004 836.800000
9353 23817 23816 1 103.70004 836.800000
23816 23818 23819 1 119.8800511 375.723200
23816 23818 23820 1 120.0200517 532.790560
23819 23818 23820 1 119.8800511 375.723200
23818 23820 23821 1 119.8800511 375.723200
23818 23820 23822 1 120.0200517 532.790560
23821 23820 23822 1 119.8800511 375.723200
23820 23822 23823 1 119.8800511 375.723200
23820 23822 23824 1 120.0200517 532.790560
23823 23822 23824 1 119.8800511 375.723200
23815 23824 23822 1 120.0200517 532.790560
23815 23824 23825 1 119.8800511 375.723200
23822 23824 23825 1 119.8800511 375.723200
23826 23827 23828 1 119.8800511 375.723200
23826 23827 23836 1 119.8800511 375.723200
23828 23827 23836 1 120.0200517 532.790560
23827 23828 23829 1 121.3800518 83.010560
23827 23828 23830 1 120.0200517 532.790560
23829 23828 23830 1 121.3800518 83.010560
845 23829 3628 1 109.50000 418.400000
845 23829 5348 1 109.50000 418.400000
845 23829 23828 1 103.70004 836.800000
3628 23829 5348 1 109.50000 418.400000
3628 23829 23828 1 103.70004 836.800000
5348 23829 23828 1 103.70004 836.800000
23828 23830 23831 1 119.8800511 375.723200
23828 23830 23832 1 120.0200517 532.790560
23831 23830 23832 1 119.8800511 375.723200
23830 23832 23833 1 119.8800511 375.723200
23830 23832 23834 1 120.0200517 532.790560
23833 23832 23834 1 119.8800511 375.723200
23832 23834 23835 1 119.8800511 375.723200
23832 23834 23836 1 120.0200517 532.790560
23835 23834 23836 1 119.8800511 375.723200
23827 23836 23834 1 120.0200517 532.790560
23827 23836 23837 1 119.8800511 375.723200
23834 23836 23837 1 119.8800511 375.723200
23838 23839 23840 1 119.8800511 375.723200
23838 23839 23848 1 119.8800511 375.723200
23840 23839 23848 1 120.0200517 532.790560
23839 23840 23841 1 121.3800518 83.010560
23839 23840 23842 1 120.0200517 532.790560
23841 23840 23842 1 121.3800518 83.010560
232 23841 6232 1 109.50000 418.400000
232 23841 9388 1 109.50000 418.400000
232 23841 23840 1 103.70004 836.800000
6232 23841 9388 1 109.50000 418.400000
6232 23841 23840 1 103.70004 836.800000
9388 23841 23840 1 103.70004 836.800000
23840 23842 23843 1 119.8800511 375.723200
23840 23842 23844 1 120.0200517 532.790560
23843 23842 23844 1 119.8800511 375.723200
23842 23844 23845 1 119.8800511 375.723200
23842 23844 23846 1 120.0200517 532.790560
23845 23844 23846 1 119.8800511 375.723200
23844 23846 23847 1 119.8800511 375.723200
23844 23846 23848 1 120.0200517 532.790560
23847 23846 23848 1 119.8800511 375.723200
23839 23848 23846 1 120.0200517 532.790560
23839 23848 23849 1 119.8800511 375.723200
23846 23848 23849 1 119.8800511 375.723200
23850 23851 23852 1 119.8800511 375.723200
23850 23851 23860 1 119.8800511 375.723200
23852 23851 23860 1 120.0200517 532.790560
23851 23852 23853 1 121.3800518 83.010560
23851 23852 23854 1 120.0200517 532.790560
23853 23852 23854 1 121.3800518 83.010560
4318 23853 9492 1 109.50000 418.400000
4318 23853 11139 1 109.50000 418.400000
4318 23853 23852 1 103.70004 836.800000
9492 23853 11139 1 109.50000 418.400000
9492 23853 23852 1 103.70004 836.800000
11139 23853 23852 1 103.70004 836.800000
23852 23854 23855 1 119.8800511 375.723200
23852 23854 23856 1 120.0200517 532.790560
23855 23854 23856 1 119.8800511 375.723200
23854 23856 23857 1 119.8800511 375.723200
23854 23856 23858 1 120.0200517 532.790560
23857 23856 23858 1 119.8800511 375.723200
23856 23858 23859 1 119.8800511 375.723200
23856 23858 23860 1 120.0200517 532.790560
23859 23858 23860 1 119.8800511 375.723200
23851 23860 23858 1 120.0200517 532.790560
23851 23860 23861 1 119.8800511 375.723200
23858 23860 23861 1 119.8800511 375.723200
23862 23863 23864 1 119.8800511 375.723200
23862 23863 23872 1 119.8800511 375.723200
23864 23863 23872 1 120.0200517 532.790560
23863 23864 23865 1 121.3800518 83.010560
23863 23864 23866 1 120.0200517 532.790560
23865 23864 23866 1 121.3800518 83.010560
7567 23865 7568 1 109.50000 418.400000
7567 23865 9230 1 109.50000 418.400000
7567 23865 23864 1 103.70004 836.800000
7568 23865 9230 1 109.50000 418.400000
7568 23865 23864 1 103.70004 836.800000
9230 23865 23864 1 103.70004 836.800000
23864 23866 23867 1 119.8800511 375.723200
23864 23866 23868 1 120.0200517 532.790560
23867 23866 23868 1 119.8800511 375.723200
23866 23868 23869 1 119.8800511 375.723200
23866 23868 23870 1 120.0200517 532.790560
23869 23868 23870 1 119.8800511 375.723200
23868 23870 23871 1 119.8800511 375.723200
23868 23870 23872 1 120.0200517 532.790560
23871 23870 23872 1 119.8800511 375.723200
23863 23872 23870 1 120.0200517 532.790560
23863 23872 23873 1 119.8800511 375.723200
23870 23872 23873 1 119.8800511 375.723200
23874 23875 23876 1 119.8800511 375.723200
23874 23875 23884 1 119.8800511 375.723200
23876 23875 23884 1 120.0200517 532.790560
23875 23876 23877 1 121.3800518 83.010560
23875 23876 23878 1 120.0200517 532.790560
23877 23876 23878 1 121.3800518 83.010560
4425 23877 9506 1 109.50000 418.400000
4425 23877 10887 1 109.50000 418.400000
4425 23877 23876 1 103.70004 836.800000
9506 23877 10887 1 109.50000 418.400000
9506 23877 23876 1 103.70004 836.800000
10887 23877 23876 1 103.70004 836.800000
23876 23878 23879 1 119.8800511 375.723200
23876 23878 23880 1 120.0200517 532.790560
23879 23878 23880 1 119.8800511 375.723200
23878 23880 23881 1 119.8800511 375.723200
23878 23880 23882 1 120.0200517 532.790560
23881 23880 23882 1 119.8800511 375.723200
23880 23882 23883 1 119.8800511 375.723200
23880 23882 23884 1 120.0200517 532.790560
23883 23882 23884 1 119.8800511 375.723200
23875 23884 23882 1 120.0200517 532.790560
23875 23884 23885 1 119.8800511 375.723200
23882 23884 23885 1 119.8800511 375.723200
2490 23886 2492 1 109.50000 418.400000
2490 23886 4374 1 109.50000 418.400000
2490 23886 23887 1 109.50000 418.400000
2492 23886 4374 1 109.50000 418.400000
2492 23886 23887 1 109.50000 418.400000
4374 23886 23887 1 109.50000 418.400000
23886 23887 23888 1 115.00000 209.200000
7200 23889 7301 1 109.50000 418.400000
7200 23889 9520 1 109.50000 418.400000
7200 23889 23890 1 109.50000 418.400000
7301 23889 9520 1 109.50000 418.400000
7301 23889 23890 1 109.50000 418.400000
9520 23889 23890 1 109.50000 418.400000
23889 23890 23891 1 115.00000 209.200000
8011 23892 9479 1 109.50000 418.400000
8011 23892 9526 1 109.50000 418.400000
8011 23892 23893 1 109.50000 418.400000
9479 23892 9526 1 109.50000 418.400000
9479 23892 23893 1 109.50000 418.400000
9526 23892 23893 1 109.50000 418.400000
23892 23893 23894 1 115.00000 209.200000
8658 23895 9601 1 109.50000 418.400000
8658 23895 9602 1 109.50000 418.400000
8658 23895 23896 1 109.50000 418.400000
9601 23895 9602 1 109.50000 418.400000
9601 23895 23896 1 109.50000 418.400000
9602 23895 23896 1 109.50000 418.400000
23895 23896 23897 1 115.00000 209.200000
7399 23898 7490 1 109.50000 418.400000
7399 23898 9606 1 109.50000 418.400000
7399 23898 23899 1 109.50000 418.400000
7490 23898 9606 1 109.50000 418.400000
7490 23898 23899 1 109.50000 418.400000
9606 23898 23899 1 109.50000 418.400000
23898 23899 23900 1 115.00000 209.200000
205 23901 207 1 109.50000 418.400000
205 23901 4963 1 109.50000 418.400000
205 23901 23902 1 109.50000 418.400000
207 23901 4963 1 109.50000 418.400000
207 23901 23902 1 109.50000 418.400000
4963 23901 23902 1 109.50000 418.400000
23901 23902 23903 1 115.00000 209.200000
6558 23904 7278 1 109.50000 418.400000
6558 23904 9648 1 109.50000 418.400000
6558 23904 23905 1 109.50000 418.400000
7278 23904 9648 1 109.50000 418.400000
7278 23904 23905 1 109.50000 418.400000
9648 23904 23905 1 109.50000 418.400000
23904 23905 23906 1 115.00000 209.200000
3885 23907 5130 1 109.50000 418.400000
3885 23907 9653 1 109.50000 418.400000
3885 23907 23908 1 109.50000 418.400000
5130 23907 9653 1 109.50000 418.400000
5130 23907 23908 1 109.50000 418.400000
9653 23907 23908 1 109.50000 418.400000
23907 23908 23909 1 115.00000 209.200000
8483 23910 9270 1 109.50000 418.400000
8483 23910 9271 1 109.50000 418.400000
8483 23910 23911 1 109.50000 418.400000
9270 23910 9271 1 109.50000 418.400000
9270 23910 23911 1 109.50000 418.400000
9271 23910 23911 1 109.50000 418.400000
23910 23911 23912 1 115.00000 209.200000
2455 23913 8091 1 109.50000 418.400000
2455 23913 9654 1 109.50000 418.400000
2455 23913 23914 1 109.50000 418.400000
8091 23913 9654 1 109.50000 418.400000
8091 23913 23914 1 109.50000 418.400000
9654 23913 23914 1 109.50000 418.400000
23913 23914 23915 1 115.00000 209.200000
4553 23916 4556 1 109.50000 418.400000
4553 23916 9672 1 109.50000 418.400000
4553 23916 23917 1 109.50000 418.400000
4556 23916 9672 1 109.50000 418.400000
4556 23916 23917 1 109.50000 418.400000
9672 23916 23917 1 109.50000 418.400000
23916 23917 23918 1 115.00000 209.200000
7126 23919 7862 1 109.50000 418.400000
7126 23919 9673 1 109.50000 418.400000
7126 23919 23920 1 109.50000 418.400000
7862 23919 9673 1 109.50000 418.400000
7862 23919 23920 1 109.50000 418.400000
9673 23919 23920 1 109.50000 418.400000
23919 23920 23921 1 115.00000 209.200000
6533 23922 9458 1 109.50000 418.400000
6533 23922 9683 1 109.50000 418.400000
6533 23922 23923 1 109.50000 418.400000
9458 23922 9683 1 109.50000 418.400000
9458 23922 23923 1 109.50000 418.400000
9683 23922 23923 1 109.50000 418.400000
23922 23923 23924 1 115.00000 209.200000
314 23925 6889 1 109.50000 418.400000
314 23925 9690 1 109.50000 418.400000
314 23925 23926 1 109.50000 418.400000
6889 23925 9690 1 109.50000 418.400000
6889 23925 23926 1 109.50000 418.400000
9690 23925 23926 1 109.50000 418.400000
23925 23926 23927 1 115.00000 209.200000
6489 23928 9556 1 109.50000 418.400000
6489 23928 9691 1 109.50000 418.400000
6489 23928 23929 1 109.50000 418.400000
9556 23928 9691 1 109.50000 418.400000
9556 23928 23929 1 109.50000 418.400000
9691 23928 23929 1 109.50000 418.400000
23928 23929 23930 1 115.00000 209.200000
1237 23931 4076 1 109.50000 418.400000
1237 23931 5414 1 109.50000 418.400000
1237 23931 23932 1 109.50000 418.400000
4076 23931 5414 1 109.50000 418.400000
4076 23931 23932 1 109.50000 418.400000
5414 23931 23932 1 109.50000 418.400000
23931 23932 23933 1 115.00000 209.200000
1043 23934 2382 1 109.50000 418.400000
1043 23934 9403 1 109.50000 418.400000
1043 23934 23935 1 109.50000 418.400000
2382 23934 9403 1 109.50000 418.400000
2382 23934 23935 1 109.50000 418.400000
9403 23934 23935 1 109.50000 418.400000
23934 23935 23936 1 115.00000 209.200000
5427 23937 8058 1 109.50000 418.400000
5427 23937 9727 1 109.50000 418.400000
5427 23937 23938 1 109.50000 418.400000
8058 23937 9727 1 109.50000 418.400000
8058 23937 23938 1 109.50000 418.400000
9727 23937 23938 1 109.50000 418.400000
23937 23938 23939 1 115.00000 209.200000
783 23940 3119 1 109.50000 418.400000
783 23940 6172 1 109.50000 418.400000
783 23940 23941 1 109.50000 418.400000
3119 23940 6172 1 109.50000 418.400000
3119 23940 23941 1 109.50000 418.400000
6172 23940 23941 1 109.50000 418.400000
23940 23941 23942 1 115.00000 209.200000
1076 23943 4689 1 109.50000 418.400000
1076 23943 7836 1 109.50000 418.400000
1076 23943 23944 1 109.50000 418.400000
4689 23943 7836 1 109.50000 418.400000
4689 23943 23944 1 109.50000 418.400000
7836 23943 23944 1 109.50000 418.400000
23943 23944 23945 1 115.00000 209.200000
2469 23946 6734 1 109.50000 418.400000
2469 23946 9557 1 109.50000 418.400000
2469 23946 23947 1 109.50000 418.400000
6734 23946 9557 1 109.50000 418.400000
6734 23946 23947 1 109.50000 418.400000
9557 23946 23947 1 109.50000 418.400000
23946 23947 23948 1 115.00000 209.200000
1370 23949 2988 1 109.50000 418.400000
1370 23949 9663 1 109.50000 418.400000
1370 23949 23950 1 109.50000 418.400000
2988 23949 9663 1 109.50000 418.400000
2988 23949 23950 1 109.50000 418.400000
9663 23949 23950 1 109.50000 418.400000
23949 23950 23951 1 115.00000 209.200000
5840 23952 8426 1 109.50000 418.400000
5840 23952 8956 1 109.50000 418.400000
5840 23952 23953 1 109.50000 418.400000
8426 23952 8956 1 109.50000 418.400000
8426 23952 23953 1 109.50000 418.400000
8956 23952 23953 1 109.50000 418.400000
23952 23953 23954 1 115.00000 209.200000
1756 23955 4773 1 109.50000 418.400000
1756 23955 6307 1 109.50000 418.400000
1756 23955 23956 1 109.50000 418.400000
4773 23955 6307 1 109.50000 418.400000
4773 23955 23956 1 109.50000 418.400000
6307 23955 23956 1 109.50000 418.400000
23955 23956 23957 1 115.00000 209.200000
7742 23958 9665 1 109.50000 418.400000
7742 23958 9806 1 109.50000 418.400000
7742 23958 23959 1 109.50000 418.400000
9665 23958 9806 1 109.50000 418.400000
9665 23958 23959 1 109.50000 418.400000
9806 23958 23959 1 109.50000 418.400000
23958 23959 23960 1 115.00000 209.200000
3601 23961 6014 1 109.50000 418.400000
3601 23961 9808 1 109.50000 418.400000
3601 23961 23962 1 109.50000 418.400000
6014 23961 9808 1 109.50000 418.400000
6014 23961 23962 1 109.50000 418.400000
9808 23961 23962 1 109.50000 418.400000
23961 23962 23963 1 115.00000 209.200000
7788 23964 9822 1 109.50000 418.400000
7788 23964 9823 1 109.50000 418.400000
7788 23964 23965 1 109.50000 418.400000
9822 23964 9823 1 109.50000 418.400000
9822 23964 23965 1 109.50000 418.400000
9823 23964 23965 1 109.50000 418.400000
23964 23965 23966 1 115.00000 209.200000
1926 23967 1927 1 109.50000 418.400000
1926 23967 9824 1 109.50000 418.400000
1926 23967 23968 1 109.50000 418.400000
1927 23967 9824 1 109.50000 418.400000
1927 23967 23968 1 109.50000 418.400000
9824 23967 23968 1 109.50000 418.400000
23967 23968 23969 1 115.00000 209.200000
2047 23970 5230 1 109.50000 418.400000
2047 23970 6643 1 109.50000 418.400000
2047 23970 23971 1 109.50000 418.400000
5230 23970 6643 1 109.50000 418.400000
5230 23970 23971 1 109.50000 418.400000
6643 23970 23971 1 109.50000 418.400000
23970 23971 23972 1 115.00000 209.200000
481 23973 482 1 109.50000 418.400000
481 23973 5325 1 109.50000 418.400000
481 23973 23974 1 109.50000 418.400000
482 23973 5325 1 109.50000 418.400000
482 23973 23974 1 109.50000 418.400000
5325 23973 23974 1 109.50000 418.400000
23973 23974 23975 1 115.00000 209.200000
4776 23976 9852 1 109.50000 418.400000
4776 23976 9853 1 109.50000 418.400000
4776 23976 23977 1 109.50000 418.400000
9852 23976 9853 1 109.50000 418.400000
9852 23976 23977 1 109.50000 418.400000
9853 23976 23977 1 109.50000 418.400000
23976 23977 23978 1 115.00000 209.200000
6314 23979 6615 1 109.50000 418.400000
6314 23979 8111 1 109.50000 418.400000
6314 23979 23980 1 109.50000 418.400000
6615 23979 8111 1 109.50000 418.400000
6615 23979 23980 1 109.50000 418.400000
8111 23979 23980 1 109.50000 418.400000
23979 23980 23981 1 115.00000 209.200000
3677 23982 6601 1 109.50000 418.400000
3677 23982 6868 1 109.50000 418.400000
3677 23982 23983 1 109.50000 418.400000
6601 23982 6868 1 109.50000 418.400000
6601 23982 23983 1 109.50000 418.400000
6868 23982 23983 1 109.50000 418.400000
23982 23983 23984 1 115.00000 209.200000
371 23985 8875 1 109.50000 418.400000
371 23985 9091 1 109.50000 418.400000
371 23985 23986 1 109.50000 418.400000
8875 23985 9091 1 109.50000 418.400000
8875 23985 23986 1 109.50000 418.400000
9091 23985 23986 1 109.50000 418.400000
23985 23986 23987 1 115.00000 209.200000
9903 23988 9904 1 109.50000 418.400000
9903 23988 9905 1 109.50000 418.400000
9903 23988 23989 1 109.50000 418.400000
9904 23988 9905 1 109.50000 418.400000
9904 23988 23989 1 109.50000 418.400000
9905 23988 23989 1 109.50000 418.400000
23988 23989 23990 1 115.00000 209.200000
2499 23991 4539 1 109.50000 418.400000
2499 23991 8362 1 109.50000 418.400000
2499 23991 23992 1 109.50000 418.400000
4539 23991 8362 1 109.50000 418.400000
4539 23991 23992 1 109.50000 418.400000
8362 23991 23992 1 109.50000 418.400000
23991 23992 23993 1 115.00000 209.200000
6519 23994 7624 1 109.50000 418.400000
6519 23994 9930 1 109.50000 418.400000
6519 23994 23995 1 109.50000 418.400000
7624 23994 9930 1 109.50000 418.400000
7624 23994 23995 1 109.50000 418.400000
9930 23994 23995 1 109.50000 418.400000
23994 23995 23996 1 115.00000 209.200000
3285 23997 5981 1 109.50000 418.400000
3285 23997 9933 1 109.50000 418.400000
3285 23997 23998 1 109.50000 418.400000
5981 23997 9933 1 109.50000 418.400000
5981 23997 23998 1 109.50000 418.400000
9933 23997 23998 1 109.50000 418.400000
23997 23998 23999 1 115.00000 209.200000
2253 24000 9949 1 109.50000 418.400000
2253 24000 9950 1 109.50000 418.400000
2253 24000 24001 1 109.50000 418.400000
9949 24000 9950 1 109.50000 418.400000
9949 24000 24001 1 109.50000 418.400000
9950 24000 24001 1 109.50000 418.400000
24000 24001 24002 1 115.00000 209.200000
7834 24003 9965 1 109.50000 418.400000
7834 24003 9966 1 109.50000 418.400000
7834 24003 24004 1 109.50000 418.400000
9965 24003 9966 1 109.50000 418.400000
9965 24003 24004 1 109.50000 418.400000
9966 24003 24004 1 109.50000 418.400000
24003 24004 24005 1 115.00000 209.200000
4688 24006 5979 1 109.50000 418.400000
4688 24006 9965 1 109.50000 418.400000
4688 24006 24007 1 109.50000 418.400000
5979 24006 9965 1 109.50000 418.400000
5979 24006 24007 1 109.50000 418.400000
9965 24006 24007 1 109.50000 418.400000
24006 24007 24008 1 115.00000 209.200000
9405 24009 9993 1 109.50000 418.400000
9405 24009 9995 1 109.50000 418.400000
9405 24009 24010 1 109.50000 418.400000
9993 24009 9995 1 109.50000 418.400000
9993 24009 24010 1 109.50000 418.400000
9995 24009 24010 1 109.50000 418.400000
24009 24010 24011 1 115.00000 209.200000
1330 24012 7807 1 109.50000 418.400000
1330 24012 10012 1 109.50000 418.400000
1330 24012 24013 1 109.50000 418.400000
7807 24012 10012 1 109.50000 418.400000
7807 24012 24013 1 109.50000 418.400000
10012 24012 24013 1 109.50000 418.400000
24012 24013 24014 1 115.00000 209.200000
2019 24015 6569 1 109.50000 418.400000
2019 24015 10021 1 109.50000 418.400000
2019 24015 24016 1 109.50000 418.400000
6569 24015 10021 1 109.50000 418.400000
6569 24015 24016 1 109.50000 418.400000
10021 24015 24016 1 109.50000 418.400000
24015 24016 24017 1 115.00000 209.200000
6415 24018 7232 1 109.50000 418.400000
6415 24018 8657 1 109.50000 418.400000
6415 24018 24019 1 109.50000 418.400000
7232 24018 8657 1 109.50000 418.400000
7232 24018 24019 1 109.50000 418.400000
8657 24018 24019 1 109.50000 418.400000
24018 24019 24020 1 115.00000 209.200000
10034 24021 10035 1 109.50000 418.400000
10034 24021 10036 1 109.50000 418.400000
10034 24021 24022 1 109.50000 418.400000
10035 24021 10036 1 109.50000 418.400000
10035 24021 24022 1 109.50000 418.400000
10036 24021 24022 1 109.50000 418.400000
24021 24022 24023 1 115.00000 209.200000
7546 24024 9792 1 109.50000 418.400000
7546 24024 10051 1 109.50000 418.400000
7546 24024 24025 1 109.50000 418.400000
9792 24024 10051 1 109.50000 418.400000
9792 24024 24025 1 109.50000 418.400000
10051 24024 24025 1 109.50000 418.400000
24024 24025 24026 1 115.00000 209.200000
5849 24027 8494 1 109.50000 418.400000
5849 24027 10053 1 109.50000 418.400000
5849 24027 24028 1 109.50000 418.400000
8494 24027 10053 1 109.50000 418.400000
8494 24027 24028 1 109.50000 418.400000
10053 24027 24028 1 109.50000 418.400000
24027 24028 24029 1 115.00000 209.200000
2112 24030 10068 1 109.50000 418.400000
2112 24030 10069 1 109.50000 418.400000
2112 24030 24031 1 109.50000 418.400000
10068 24030 10069 1 109.50000 418.400000
10068 24030 24031 1 109.50000 418.400000
10069 24030 24031 1 109.50000 418.400000
24030 24031 24032 1 115.00000 209.200000
6572 24033 6574 1 109.50000 418.400000
6572 24033 10081 1 109.50000 418.400000
6572 24033 24034 1 109.50000 418.400000
6574 24033 10081 1 109.50000 418.400000
6574 24033 24034 1 109.50000 418.400000
10081 24033 24034 1 109.50000 418.400000
24033 24034 24035 1 115.00000 209.200000
9284 24036 10085 1 109.50000 418.400000
9284 24036 10086 1 109.50000 418.400000
9284 24036 24037 1 109.50000 418.400000
10085 24036 10086 1 109.50000 418.400000
10085 24036 24037 1 109.50000 418.400000
10086 24036 24037 1 109.50000 418.400000
24036 24037 24038 1 115.00000 209.200000
568 24039 2239 1 109.50000 418.400000
568 24039 7509 1 109.50000 418.400000
568 24039 24040 1 109.50000 418.400000
2239 24039 7509 1 109.50000 418.400000
2239 24039 24040 1 109.50000 418.400000
7509 24039 24040 1 109.50000 418.400000
24039 24040 24041 1 115.00000 209.200000
3345 24042 4952 1 109.50000 418.400000
3345 24042 10104 1 109.50000 418.400000
3345 24042 24043 1 109.50000 418.400000
4952 24042 10104 1 109.50000 418.400000
4952 24042 24043 1 109.50000 418.400000
10104 24042 24043 1 109.50000 418.400000
24042 24043 24044 1 115.00000 209.200000
8928 24045 9424 1 109.50000 418.400000
8928 24045 9823 1 109.50000 418.400000
8928 24045 24046 1 109.50000 418.400000
9424 24045 9823 1 109.50000 418.400000
9424 24045 24046 1 109.50000 418.400000
9823 24045 24046 1 109.50000 418.400000
24045 24046 24047 1 115.00000 209.200000
2700 24048 4994 1 109.50000 418.400000
2700 24048 10121 1 109.50000 418.400000
2700 24048 24049 1 109.50000 418.400000
4994 24048 10121 1 109.50000 418.400000
4994 24048 24049 1 109.50000 418.400000
10121 24048 24049 1 109.50000 418.400000
24048 24049 24050 1 115.00000 209.200000
5020 24051 7250 1 109.50000 418.400000
5020 24051 10124 1 109.50000 418.400000
5020 24051 24052 1 109.50000 418.400000
7250 24051 10124 1 109.50000 418.400000
7250 24051 24052 1 109.50000 418.400000
10124 24051 24052 1 109.50000 418.400000
24051 24052 24053 1 115.00000 209.200000
2890 24054 9603 1 109.50000 418.400000
2890 24054 10140 1 109.50000 418.400000
2890 24054 24055 1 109.50000 418.400000
9603 24054 10140 1 109.50000 418.400000
9603 24054 24055 1 109.50000 418.400000
10140 24054 24055 1 109.50000 418.400000
24054 24055 24056 1 115.00000 209.200000
3834 24057 9092 1 109.50000 418.400000
3834 24057 10141 1 109.50000 418.400000
3834 24057 24058 1 109.50000 418.400000
9092 24057 10141 1 109.50000 418.400000
9092 24057 24058 1 109.50000 418.400000
10141 24057 24058 1 109.50000 418.400000
24057 24058 24059 1 115.00000 209.200000
469 24060 3072 1 109.50000 418.400000
469 24060 10144 1 109.50000 418.400000
469 24060 24061 1 109.50000 418.400000
3072 24060 10144 1 109.50000 418.400000
3072 24060 24061 1 109.50000 418.400000
10144 24060 24061 1 109.50000 418.400000
24060 24061 24062 1 115.00000 209.200000
9460 24063 10148 1 109.50000 418.400000
9460 24063 10149 1 109.50000 418.400000
9460 24063 24064 1 109.50000 418.400000
10148 24063 10149 1 109.50000 418.400000
10148 24063 24064 1 109.50000 418.400000
10149 24063 24064 1 109.50000 418.400000
24063 24064 24065 1 115.00000 209.200000
6892 24066 8331 1 109.50000 418.400000
6892 24066 11159 1 109.50000 418.400000
6892 24066 24067 1 109.50000 418.400000
8331 24066 11159 1 109.50000 418.400000
8331 24066 24067 1 109.50000 418.400000
11159 24066 24067 1 109.50000 418.400000
24066 24067 24068 1 115.00000 209.200000
2099 24069 10012 1 109.50000 418.400000
2099 24069 10165 1 109.50000 418.400000
2099 24069 24070 1 109.50000 418.400000
10012 24069 10165 1 109.50000 418.400000
10012 24069 24070 1 109.50000 418.400000
10165 24069 24070 1 109.50000 418.400000
24069 24070 24071 1 115.00000 209.200000
2747 24072 9143 1 109.50000 418.400000
2747 24072 10185 1 109.50000 418.400000
2747 24072 24073 1 109.50000 418.400000
9143 24072 10185 1 109.50000 418.400000
9143 24072 24073 1 109.50000 418.400000
10185 24072 24073 1 109.50000 418.400000
24072 24073 24074 1 115.00000 209.200000
9269 24075 9492 1 109.50000 418.400000
9269 24075 10199 1 109.50000 418.400000
9269 24075 24076 1 109.50000 418.400000
9492 24075 10199 1 109.50000 418.400000
9492 24075 24076 1 109.50000 418.400000
10199 24075 24076 1 109.50000 418.400000
24075 24076 24077 1 115.00000 209.200000
7661 24078 7663 1 109.50000 418.400000
7661 24078 10213 1 109.50000 418.400000
7661 24078 24079 1 109.50000 418.400000
7663 24078 10213 1 109.50000 418.400000
7663 24078 24079 1 109.50000 418.400000
10213 24078 24079 1 109.50000 418.400000
24078 24079 24080 1 115.00000 209.200000
6238 24081 10197 1 109.50000 418.400000
6238 24081 10229 1 109.50000 418.400000
6238 24081 24082 1 109.50000 418.400000
10197 24081 10229 1 109.50000 418.400000
10197 24081 24082 1 109.50000 418.400000
10229 24081 24082 1 109.50000 418.400000
24081 24082 24083 1 115.00000 209.200000
2667 24084 7851 1 109.50000 418.400000
2667 24084 10230 1 109.50000 418.400000
2667 24084 24085 1 109.50000 418.400000
7851 24084 10230 1 109.50000 418.400000
7851 24084 24085 1 109.50000 418.400000
10230 24084 24085 1 109.50000 418.400000
24084 24085 24086 1 115.00000 209.200000
8985 24087 10238 1 109.50000 418.400000
8985 24087 10239 1 109.50000 418.400000
8985 24087 24088 1 109.50000 418.400000
10238 24087 10239 1 109.50000 418.400000
10238 24087 24088 1 109.50000 418.400000
10239 24087 24088 1 109.50000 418.400000
24087 24088 24089 1 115.00000 209.200000
8942 24090 10276 1 109.50000 418.400000
8942 24090 11166 1 109.50000 418.400000
8942 24090 24091 1 109.50000 418.400000
10276 24090 11166 1 109.50000 418.400000
10276 24090 24091 1 109.50000 418.400000
11166 24090 24091 1 109.50000 418.400000
24090 24091 24092 1 115.00000 209.200000
2031 24093 3568 1 109.50000 418.400000
2031 24093 4118 1 109.50000 418.400000
2031 24093 24094 1 109.50000 418.400000
3568 24093 4118 1 109.50000 418.400000
3568 24093 24094 1 109.50000 418.400000
4118 24093 24094 1 109.50000 418.400000
24093 24094 24095 1 115.00000 209.200000
3527 24096 5392 1 109.50000 418.400000
3527 24096 6928 1 109.50000 418.400000
3527 24096 24097 1 109.50000 418.400000
5392 24096 6928 1 109.50000 418.400000
5392 24096 24097 1 109.50000 418.400000
6928 24096 24097 1 109.50000 418.400000
24096 24097 24098 1 115.00000 209.200000
7365 24099 10048 1 109.50000 418.400000
7365 24099 10296 1 109.50000 418.400000
7365 24099 24100 1 109.50000 418.400000
10048 24099 10296 1 109.50000 418.400000
10048 24099 24100 1 109.50000 418.400000
10296 24099 24100 1 109.50000 418.400000
24099 24100 24101 1 115.00000 209.200000
1634 24102 6000 1 109.50000 418.400000
1634 24102 9904 1 109.50000 418.400000
1634 24102 24103 1 109.50000 418.400000
6000 24102 9904 1 109.50000 418.400000
6000 24102 24103 1 109.50000 418.400000
9904 24102 24103 1 109.50000 418.400000
24102 24103 24104 1 115.00000 209.200000
4623 24105 5297 1 109.50000 418.400000
4623 24105 8375 1 109.50000 418.400000
4623 24105 24106 1 109.50000 418.400000
5297 24105 8375 1 109.50000 418.400000
5297 24105 24106 1 109.50000 418.400000
8375 24105 24106 1 109.50000 418.400000
24105 24106 24107 1 115.00000 209.200000
6219 24108 10329 1 109.50000 418.400000
6219 24108 11146 1 109.50000 418.400000
6219 24108 24109 1 109.50000 418.400000
10329 24108 11146 1 109.50000 418.400000
10329 24108 24109 1 109.50000 418.400000
11146 24108 24109 1 109.50000 418.400000
24108 24109 24110 1 115.00000 209.200000
6642 24111 10330 1 109.50000 418.400000
6642 24111 11158 1 109.50000 418.400000
6642 24111 24112 1 109.50000 418.400000
10330 24111 11158 1 109.50000 418.400000
10330 24111 24112 1 109.50000 418.400000
11158 24111 24112 1 109.50000 418.400000
24111 24112 24113 1 115.00000 209.200000
18 24114 8294 1 109.50000 418.400000
18 24114 9011 1 109.50000 418.400000
18 24114 24115 1 109.50000 418.400000
8294 24114 9011 1 109.50000 418.400000
8294 24114 24115 1 109.50000 418.400000
9011 24114 24115 1 109.50000 418.400000
24114 24115 24116 1 115.00000 209.200000
3927 24117 4809 1 109.50000 418.400000
3927 24117 5287 1 109.50000 418.400000
3927 24117 24118 1 109.50000 418.400000
4809 24117 5287 1 109.50000 418.400000
4809 24117 24118 1 109.50000 418.400000
5287 24117 24118 1 109.50000 418.400000
24117 24118 24119 1 115.00000 209.200000
3492 24120 3935 1 109.50000 418.400000
3492 24120 9678 1 109.50000 418.400000
3492 24120 24121 1 109.50000 418.400000
3935 24120 9678 1 109.50000 418.400000
3935 24120 24121 1 109.50000 418.400000
9678 24120 24121 1 109.50000 418.400000
24120 24121 24122 1 115.00000 209.200000
10086 24123 10159 1 109.50000 418.400000
10086 24123 10357 1 109.50000 418.400000
10086 24123 24124 1 109.50000 418.400000
10159 24123 10357 1 109.50000 418.400000
10159 24123 24124 1 109.50000 418.400000
10357 24123 24124 1 109.50000 418.400000
24123 24124 24125 1 115.00000 209.200000
3559 24126 10104 1 109.50000 418.400000
3559 24126 10270 1 109.50000 418.400000
3559 24126 24127 1 109.50000 418.400000
10104 24126 10270 1 109.50000 418.400000
10104 24126 24127 1 109.50000 418.400000
10270 24126 24127 1 109.50000 418.400000
24126 24127 24128 1 115.00000 209.200000
1075 24129 4446 1 109.50000 418.400000
1075 24129 10221 1 109.50000 418.400000
1075 24129 24130 1 109.50000 418.400000
4446 24129 10221 1 109.50000 418.400000
4446 24129 24130 1 109.50000 418.400000
10221 24129 24130 1 109.50000 418.400000
24129 24130 24131 1 115.00000 209.200000
4185 24132 10413 1 109.50000 418.400000
4185 24132 10414 1 109.50000 418.400000
4185 24132 24133 1 109.50000 418.400000
10413 24132 10414 1 109.50000 418.400000
10413 24132 24133 1 109.50000 418.400000
10414 24132 24133 1 109.50000 418.400000
24132 24133 24134 1 115.00000 209.200000
6435 24135 6437 1 109.50000 418.400000
6435 24135 8391 1 109.50000 418.400000
6435 24135 24136 1 109.50000 418.400000
6437 24135 8391 1 109.50000 418.400000
6437 24135 24136 1 109.50000 418.400000
8391 24135 24136 1 109.50000 418.400000
24135 24136 24137 1 115.00000 209.200000
10435 24138 10436 1 109.50000 418.400000
10435 24138 10836 1 109.50000 418.400000
10435 24138 24139 1 109.50000 418.400000
10436 24138 10836 1 109.50000 418.400000
10436 24138 24139 1 109.50000 418.400000
10836 24138 24139 1 109.50000 418.400000
24138 24139 24140 1 115.00000 209.200000
4057 24141 10441 1 109.50000 418.400000
4057 24141 10442 1 109.50000 418.400000
4057 24141 24142 1 109.50000 418.400000
10441 24141 10442 1 109.50000 418.400000
10441 24141 24142 1 109.50000 418.400000
10442 24141 24142 1 109.50000 418.400000
24141 24142 24143 1 115.00000 209.200000
9562 24144 10461 1 109.50000 418.400000
9562 24144 10462 1 109.50000 418.400000
9562 24144 24145 1 109.50000 418.400000
10461 24144 10462 1 109.50000 418.400000
10461 24144 24145 1 109.50000 418.400000
10462 24144 24145 1 109.50000 418.400000
24144 24145 24146 1 115.00000 209.200000
793 24147 10034 1 109.50000 418.400000
793 24147 10463 1 109.50000 418.400000
793 24147 24148 1 109.50000 418.400000
10034 24147 10463 1 109.50000 418.400000
10034 24147 24148 1 109.50000 418.400000
10463 24147 24148 1 109.50000 418.400000
24147 24148 24149 1 115.00000 209.200000
676 24150 1921 1 109.50000 418.400000
676 24150 10475 1 109.50000 418.400000
676 24150 24151 1 109.50000 418.400000
1921 24150 10475 1 109.50000 418.400000
1921 24150 24151 1 109.50000 418.400000
10475 24150 24151 1 109.50000 418.400000
24150 24151 24152 1 115.00000 209.200000
3879 24153 7170 1 109.50000 418.400000
3879 24153 10491 1 109.50000 418.400000
3879 24153 24154 1 109.50000 418.400000
7170 24153 10491 1 109.50000 418.400000
7170 24153 24154 1 109.50000 418.400000
10491 24153 24154 1 109.50000 418.400000
24153 24154 24155 1 115.00000 209.200000
9803 24156 10149 1 109.50000 418.400000
9803 24156 10492 1 109.50000 418.400000
9803 24156 24157 1 109.50000 418.400000
10149 24156 10492 1 109.50000 418.400000
10149 24156 24157 1 109.50000 418.400000
10492 24156 24157 1 109.50000 418.400000
24156 24157 24158 1 115.00000 209.200000
1755 24159 10306 1 109.50000 418.400000
1755 24159 10307 1 109.50000 418.400000
1755 24159 24160 1 109.50000 418.400000
10306 24159 10307 1 109.50000 418.400000
10306 24159 24160 1 109.50000 418.400000
10307 24159 24160 1 109.50000 418.400000
24159 24160 24161 1 115.00000 209.200000
8363 24162 9558 1 109.50000 418.400000
8363 24162 11145 1 109.50000 418.400000
8363 24162 24163 1 109.50000 418.400000
9558 24162 11145 1 109.50000 418.400000
9558 24162 24163 1 109.50000 418.400000
11145 24162 24163 1 109.50000 418.400000
24162 24163 24164 1 115.00000 209.200000
1021 24165 9602 1 109.50000 418.400000
1021 24165 9828 1 109.50000 418.400000
1021 24165 24166 1 109.50000 418.400000
9602 24165 9828 1 109.50000 418.400000
9602 24165 24166 1 109.50000 418.400000
9828 24165 24166 1 109.50000 418.400000
24165 24166 24167 1 115.00000 209.200000
1715 24168 7141 1 109.50000 418.400000
1715 24168 8493 1 109.50000 418.400000
1715 24168 24169 1 109.50000 418.400000
7141 24168 8493 1 109.50000 418.400000
7141 24168 24169 1 109.50000 418.400000
8493 24168 24169 1 109.50000 418.400000
24168 24169 24170 1 115.00000 209.200000
19 24171 4534 1 109.50000 418.400000
19 24171 9768 1 109.50000 418.400000
19 24171 24172 1 109.50000 418.400000
4534 24171 9768 1 109.50000 418.400000
4534 24171 24172 1 109.50000 418.400000
9768 24171 24172 1 109.50000 418.400000
24171 24172 24173 1 115.00000 209.200000
1635 24174 10513 1 109.50000 418.400000
1635 24174 10514 1 109.50000 418.400000
1635 24174 24175 1 109.50000 418.400000
10513 24174 10514 1 109.50000 418.400000
10513 24174 24175 1 109.50000 418.400000
10514 24174 24175 1 109.50000 418.400000
24174 24175 24176 1 115.00000 209.200000
5592 24177 9575 1 109.50000 418.400000
5592 24177 9642 1 109.50000 418.400000
5592 24177 24178 1 109.50000 418.400000
9575 24177 9642 1 109.50000 418.400000
9575 24177 24178 1 109.50000 418.400000
9642 24177 24178 1 109.50000 418.400000
24177 24178 24179 1 115.00000 209.200000
779 24180 9193 1 109.50000 418.400000
779 24180 11160 1 109.50000 418.400000
779 24180 24181 1 109.50000 418.400000
9193 24180 11160 1 109.50000 418.400000
9193 24180 24181 1 109.50000 418.400000
11160 24180 24181 1 109.50000 418.400000
24180 24181 24182 1 115.00000 209.200000
3105 24183 10560 1 109.50000 418.400000
3105 24183 10561 1 109.50000 418.400000
3105 24183 24184 1 109.50000 418.400000
10560 24183 10561 1 109.50000 418.400000
10560 24183 24184 1 109.50000 418.400000
10561 24183 24184 1 109.50000 418.400000
24183 24184 24185 1 115.00000 209.200000
2996 24186 4584 1 109.50000 418.400000
2996 24186 10567 1 109.50000 418.400000
2996 24186 24187 1 109.50000 418.400000
4584 24186 10567 1 109.50000 418.400000
4584 24186 24187 1 109.50000 418.400000
10567 24186 24187 1 109.50000 418.400000
24186 24187 24188 1 115.00000 209.200000
1970 24189 3493 1 109.50000 418.400000
1970 24189 6263 1 109.50000 418.400000
1970 24189 24190 1 109.50000 418.400000
3493 24189 6263 1 109.50000 418.400000
3493 24189 24190 1 109.50000 418.400000
6263 24189 24190 1 109.50000 418.400000
24189 24190 24191 1 115.00000 209.200000
3740 24192 6089 1 109.50000 418.400000
3740 24192 10572 1 109.50000 418.400000
3740 24192 24193 1 109.50000 418.400000
6089 24192 10572 1 109.50000 418.400000
6089 24192 24193 1 109.50000 418.400000
10572 24192 24193 1 109.50000 418.400000
24192 24193 24194 1 115.00000 209.200000
5467 24195 10581 1 109.50000 418.400000
5467 24195 10582 1 109.50000 418.400000
5467 24195 24196 1 109.50000 418.400000
10581 24195 10582 1 109.50000 418.400000
10581 24195 24196 1 109.50000 418.400000
10582 24195 24196 1 109.50000 418.400000
24195 24196 24197 1 115.00000 209.200000
1040 24198 7285 1 109.50000 418.400000
1040 24198 10587 1 109.50000 418.400000
1040 24198 24199 1 109.50000 418.400000
7285 24198 10587 1 109.50000 418.400000
7285 24198 24199 1 109.50000 418.400000
10587 24198 24199 1 109.50000 418.400000
24198 24199 24200 1 115.00000 209.200000
2568 24201 4033 1 109.50000 418.400000
2568 24201 7493 1 109.50000 418.400000
2568 24201 24202 1 109.50000 418.400000
4033 24201 7493 1 109.50000 418.400000
4033 24201 24202 1 109.50000 418.400000
7493 24201 24202 1 109.50000 418.400000
24201 24202 24203 1 115.00000 209.200000
5991 24204 10515 1 109.50000 418.400000
5991 24204 10591 1 109.50000 418.400000
5991 24204 24205 1 109.50000 418.400000
10515 24204 10591 1 109.50000 418.400000
10515 24204 24205 1 109.50000 418.400000
10591 24204 24205 1 109.50000 418.400000
24204 24205 24206 1 115.00000 209.200000
620 24207 10592 1 109.50000 418.400000
620 24207 10593 1 109.50000 418.400000
620 24207 24208 1 109.50000 418.400000
10592 24207 10593 1 109.50000 418.400000
10592 24207 24208 1 109.50000 418.400000
10593 24207 24208 1 109.50000 418.400000
24207 24208 24209 1 115.00000 209.200000
1971 24210 5428 1 109.50000 418.400000
1971 24210 10312 1 109.50000 418.400000
1971 24210 24211 1 109.50000 418.400000
5428 24210 10312 1 109.50000 418.400000
5428 24210 24211 1 109.50000 418.400000
10312 24210 24211 1 109.50000 418.400000
24210 24211 24212 1 115.00000 209.200000
3946 24213 4479 1 109.50000 418.400000
3946 24213 10607 1 109.50000 418.400000
3946 24213 24214 1 109.50000 418.400000
4479 24213 10607 1 109.50000 418.400000
4479 24213 24214 1 109.50000 418.400000
10607 24213 24214 1 109.50000 418.400000
24213 24214 24215 1 115.00000 209.200000
3727 24216 9679 1 109.50000 418.400000
3727 24216 9751 1 109.50000 418.400000
3727 24216 24217 1 109.50000 418.400000
9679 24216 9751 1 109.50000 418.400000
9679 24216 24217 1 109.50000 418.400000
9751 24216 24217 1 109.50000 418.400000
24216 24217 24218 1 115.00000 209.200000
90 24219 3380 1 109.50000 418.400000
90 24219 5856 1 109.50000 418.400000
90 24219 24220 1 109.50000 418.400000
3380 24219 5856 1 109.50000 418.400000
3380 24219 24220 1 109.50000 418.400000
5856 24219 24220 1 109.50000 418.400000
24219 24220 24221 1 115.00000 209.200000
92 24222 814 1 109.50000 418.400000
92 24222 6854 1 109.50000 418.400000
92 24222 24223 1 109.50000 418.400000
814 24222 6854 1 109.50000 418.400000
814 24222 24223 1 109.50000 418.400000
6854 24222 24223 1 109.50000 418.400000
24222 24223 24224 1 115.00000 209.200000
6267 24225 6988 1 109.50000 418.400000
6267 24225 10626 1 109.50000 418.400000
6267 24225 24226 1 109.50000 418.400000
6988 24225 10626 1 109.50000 418.400000
6988 24225 24226 1 109.50000 418.400000
10626 24225 24226 1 109.50000 418.400000
24225 24226 24227 1 115.00000 209.200000
2699 24228 10076 1 109.50000 418.400000
2699 24228 10139 1 109.50000 418.400000
2699 24228 24229 1 109.50000 418.400000
10076 24228 10139 1 109.50000 418.400000
10076 24228 24229 1 109.50000 418.400000
10139 24228 24229 1 109.50000 418.400000
24228 24229 24230 1 115.00000 209.200000
3071 24231 7376 1 109.50000 418.400000
3071 24231 9183 1 109.50000 418.400000
3071 24231 24232 1 109.50000 418.400000
7376 24231 9183 1 109.50000 418.400000
7376 24231 24232 1 109.50000 418.400000
9183 24231 24232 1 109.50000 418.400000
24231 24232 24233 1 115.00000 209.200000
4439 24234 6909 1 109.50000 418.400000
4439 24234 9574 1 109.50000 418.400000
4439 24234 24235 1 109.50000 418.400000
6909 24234 9574 1 109.50000 418.400000
6909 24234 24235 1 109.50000 418.400000
9574 24234 24235 1 109.50000 418.400000
24234 24235 24236 1 115.00000 209.200000
6149 24237 10678 1 109.50000 418.400000
6149 24237 10679 1 109.50000 418.400000
6149 24237 24238 1 109.50000 418.400000
10678 24237 10679 1 109.50000 418.400000
10678 24237 24238 1 109.50000 418.400000
10679 24237 24238 1 109.50000 418.400000
24237 24238 24239 1 115.00000 209.200000
4018 24240 4082 1 109.50000 418.400000
4018 24240 10560 1 109.50000 418.400000
4018 24240 24241 1 109.50000 418.400000
4082 24240 10560 1 109.50000 418.400000
4082 24240 24241 1 109.50000 418.400000
10560 24240 24241 1 109.50000 418.400000
24240 24241 24242 1 115.00000 209.200000
3878 24243 8874 1 109.50000 418.400000
3878 24243 9441 1 109.50000 418.400000
3878 24243 24244 1 109.50000 418.400000
8874 24243 9441 1 109.50000 418.400000
8874 24243 24244 1 109.50000 418.400000
9441 24243 24244 1 109.50000 418.400000
24243 24244 24245 1 115.00000 209.200000
9732 24246 10685 1 109.50000 418.400000
9732 24246 10686 1 109.50000 418.400000
9732 24246 24247 1 109.50000 418.400000
10685 24246 10686 1 109.50000 418.400000
10685 24246 24247 1 109.50000 418.400000
10686 24246 24247 1 109.50000 418.400000
24246 24247 24248 1 115.00000 209.200000
1736 24249 2965 1 109.50000 418.400000
1736 24249 3899 1 109.50000 418.400000
1736 24249 24250 1 109.50000 418.400000
2965 24249 3899 1 109.50000 418.400000
2965 24249 24250 1 109.50000 418.400000
3899 24249 24250 1 109.50000 418.400000
24249 24250 24251 1 115.00000 209.200000
4367 24252 6396 1 109.50000 418.400000
4367 24252 10705 1 109.50000 418.400000
4367 24252 24253 1 109.50000 418.400000
6396 24252 10705 1 109.50000 418.400000
6396 24252 24253 1 109.50000 418.400000
10705 24252 24253 1 109.50000 418.400000
24252 24253 24254 1 115.00000 209.200000
6843 24255 8621 1 109.50000 418.400000
6843 24255 9766 1 109.50000 418.400000
6843 24255 24256 1 109.50000 418.400000
8621 24255 9766 1 109.50000 418.400000
8621 24255 24256 1 109.50000 418.400000
9766 24255 24256 1 109.50000 418.400000
24255 24256 24257 1 115.00000 209.200000
5763 24258 8044 1 109.50000 418.400000
5763 24258 10736 1 109.50000 418.400000
5763 24258 24259 1 109.50000 418.400000
8044 24258 10736 1 109.50000 418.400000
8044 24258 24259 1 109.50000 418.400000
10736 24258 24259 1 109.50000 418.400000
24258 24259 24260 1 115.00000 209.200000
9210 24261 10742 1 109.50000 418.400000
9210 24261 10743 1 109.50000 418.400000
9210 24261 24262 1 109.50000 418.400000
10742 24261 10743 1 109.50000 418.400000
10742 24261 24262 1 109.50000 418.400000
10743 24261 24262 1 109.50000 418.400000
24261 24262 24263 1 115.00000 209.200000
6452 24264 9581 1 109.50000 418.400000
6452 24264 10744 1 109.50000 418.400000
6452 24264 24265 1 109.50000 418.400000
9581 24264 10744 1 109.50000 418.400000
9581 24264 24265 1 109.50000 418.400000
10744 24264 24265 1 109.50000 418.400000
24264 24265 24266 1 115.00000 209.200000
6152 24267 8498 1 109.50000 418.400000
6152 24267 10747 1 109.50000 418.400000
6152 24267 24268 1 109.50000 418.400000
8498 24267 10747 1 109.50000 418.400000
8498 24267 24268 1 109.50000 418.400000
10747 24267 24268 1 109.50000 418.400000
24267 24268 24269 1 115.00000 209.200000
792 24270 5442 1 109.50000 418.400000
792 24270 9504 1 109.50000 418.400000
792 24270 24271 1 109.50000 418.400000
5442 24270 9504 1 109.50000 418.400000
5442 24270 24271 1 109.50000 418.400000
9504 24270 24271 1 109.50000 418.400000
24270 24271 24272 1 115.00000 209.200000
6901 24273 10756 1 109.50000 418.400000
6901 24273 10757 1 109.50000 418.400000
6901 24273 24274 1 109.50000 418.400000
10756 24273 10757 1 109.50000 418.400000
10756 24273 24274 1 109.50000 418.400000
10757 24273 24274 1 109.50000 418.400000
24273 24274 24275 1 115.00000 209.200000
4510 24276 7457 1 109.50000 418.400000
4510 24276 10758 1 109.50000 418.400000
4510 24276 24277 1 109.50000 418.400000
7457 24276 10758 1 109.50000 418.400000
7457 24276 24277 1 109.50000 418.400000
10758 24276 24277 1 109.50000 418.400000
24276 24277 24278 1 115.00000 209.200000
1877 24279 3338 1 109.50000 418.400000
1877 24279 7979 1 109.50000 418.400000
1877 24279 24280 1 109.50000 418.400000
3338 24279 7979 1 109.50000 418.400000
3338 24279 24280 1 109.50000 418.400000
7979 24279 24280 1 109.50000 418.400000
24279 24280 24281 1 115.00000 209.200000
6366 24282 8054 1 109.50000 418.400000
6366 24282 8213 1 109.50000 418.400000
6366 24282 24283 1 109.50000 418.400000
8054 24282 8213 1 109.50000 418.400000
8054 24282 24283 1 109.50000 418.400000
8213 24282 24283 1 109.50000 418.400000
24282 24283 24284 1 115.00000 209.200000
853 24285 1645 1 109.50000 418.400000
853 24285 4565 1 109.50000 418.400000
853 24285 24286 1 109.50000 418.400000
1645 24285 4565 1 109.50000 418.400000
1645 24285 24286 1 109.50000 418.400000
4565 24285 24286 1 109.50000 418.400000
24285 24286 24287 1 115.00000 209.200000
239 24288 3133 1 109.50000 418.400000
239 24288 8794 1 109.50000 418.400000
239 24288 24289 1 109.50000 418.400000
3133 24288 8794 1 109.50000 418.400000
3133 24288 24289 1 109.50000 418.400000
8794 24288 24289 1 109.50000 418.400000
24288 24289 24290 1 115.00000 209.200000
937 24291 6733 1 109.50000 418.400000
937 24291 9652 1 109.50000 418.400000
937 24291 24292 1 109.50000 418.400000
6733 24291 9652 1 109.50000 418.400000
6733 24291 24292 1 109.50000 418.400000
9652 24291 24292 1 109.50000 418.400000
24291 24292 24293 1 115.00000 209.200000
2569 24294 9993 1 109.50000 418.400000
2569 24294 10450 1 109.50000 418.400000
2569 24294 24295 1 109.50000 418.400000
9993 24294 10450 1 109.50000 418.400000
9993 24294 24295 1 109.50000 418.400000
10450 24294 24295 1 109.50000 418.400000
24294 24295 24296 1 115.00000 209.200000
896 24297 4550 1 109.50000 418.400000
896 24297 7220 1 109.50000 418.400000
896 24297 24298 1 109.50000 418.400000
4550 24297 7220 1 109.50000 418.400000
4550 24297 24298 1 109.50000 418.400000
7220 24297 24298 1 109.50000 418.400000
24297 24298 24299 1 115.00000 209.200000
357 24300 6595 1 109.50000 418.400000
357 24300 10790 1 109.50000 418.400000
357 24300 24301 1 109.50000 418.400000
6595 24300 10790 1 109.50000 418.400000
6595 24300 24301 1 109.50000 418.400000
10790 24300 24301 1 109.50000 418.400000
24300 24301 24302 1 115.00000 209.200000
2884 24303 9804 1 109.50000 418.400000
2884 24303 10802 1 109.50000 418.400000
2884 24303 24304 1 109.50000 418.400000
9804 24303 10802 1 109.50000 418.400000
9804 24303 24304 1 109.50000 418.400000
10802 24303 24304 1 109.50000 418.400000
24303 24304 24305 1 115.00000 209.200000
417 24306 9344 1 109.50000 418.400000
417 24306 10804 1 109.50000 418.400000
417 24306 24307 1 109.50000 418.400000
9344 24306 10804 1 109.50000 418.400000
9344 24306 24307 1 109.50000 418.400000
10804 24306 24307 1 109.50000 418.400000
24306 24307 24308 1 115.00000 209.200000
1951 24309 8851 1 109.50000 418.400000
1951 24309 10674 1 109.50000 418.400000
1951 24309 24310 1 109.50000 418.400000
8851 24309 10674 1 109.50000 418.400000
8851 24309 24310 1 109.50000 418.400000
10674 24309 24310 1 109.50000 418.400000
24309 24310 24311 1 115.00000 209.200000
6517 24312 6519 1 109.50000 418.400000
6517 24312 7094 1 109.50000 418.400000
6517 24312 24313 1 109.50000 418.400000
6519 24312 7094 1 109.50000 418.400000
6519 24312 24313 1 109.50000 418.400000
7094 24312 24313 1 109.50000 418.400000
24312 24313 24314 1 115.00000 209.200000
3567 24315 10441 1 109.50000 418.400000
3567 24315 10814 1 109.50000 418.400000
3567 24315 24316 1 109.50000 418.400000
10441 24315 10814 1 109.50000 418.400000
10441 24315 24316 1 109.50000 418.400000
10814 24315 24316 1 109.50000 418.400000
24315 24316 24317 1 115.00000 209.200000
9549 24318 10821 1 109.50000 418.400000
9549 24318 10822 1 109.50000 418.400000
9549 24318 24319 1 109.50000 418.400000
10821 24318 10822 1 109.50000 418.400000
10821 24318 24319 1 109.50000 418.400000
10822 24318 24319 1 109.50000 418.400000
24318 24319 24320 1 115.00000 209.200000
2042 24321 7343 1 109.50000 418.400000
2042 24321 10425 1 109.50000 418.400000
2042 24321 24322 1 109.50000 418.400000
7343 24321 10425 1 109.50000 418.400000
7343 24321 24322 1 109.50000 418.400000
10425 24321 24322 1 109.50000 418.400000
24321 24322 24323 1 115.00000 209.200000
2493 24324 10813 1 109.50000 418.400000
2493 24324 10827 1 109.50000 418.400000
2493 24324 24325 1 109.50000 418.400000
10813 24324 10827 1 109.50000 418.400000
10813 24324 24325 1 109.50000 418.400000
10827 24324 24325 1 109.50000 418.400000
24324 24325 24326 1 115.00000 209.200000
1222 24327 10802 1 109.50000 418.400000
1222 24327 10828 1 109.50000 418.400000
1222 24327 24328 1 109.50000 418.400000
10802 24327 10828 1 109.50000 418.400000
10802 24327 24328 1 109.50000 418.400000
10828 24327 24328 1 109.50000 418.400000
24327 24328 24329 1 115.00000 209.200000
4501 24330 10840 1 109.50000 418.400000
4501 24330 10841 1 109.50000 418.400000
4501 24330 24331 1 109.50000 418.400000
10840 24330 10841 1 109.50000 418.400000
10840 24330 24331 1 109.50000 418.400000
10841 24330 24331 1 109.50000 418.400000
24330 24331 24332 1 115.00000 209.200000
7287 24333 7288 1 109.50000 418.400000
7287 24333 9990 1 109.50000 418.400000
7287 24333 24334 1 109.50000 418.400000
7288 24333 9990 1 109.50000 418.400000
7288 24333 24334 1 109.50000 418.400000
9990 24333 24334 1 109.50000 418.400000
24333 24334 24335 1 115.00000 209.200000
4929 24336 10286 1 109.50000 418.400000
4929 24336 10500 1 109.50000 418.400000
4929 24336 24337 1 109.50000 418.400000
10286 24336 10500 1 109.50000 418.400000
10286 24336 24337 1 109.50000 418.400000
10500 24336 24337 1 109.50000 418.400000
24336 24337 24338 1 115.00000 209.200000
6997 24339 8822 1 109.50000 418.400000
6997 24339 10551 1 109.50000 418.400000
6997 24339 24340 1 109.50000 418.400000
8822 24339 10551 1 109.50000 418.400000
8822 24339 24340 1 109.50000 418.400000
10551 24339 24340 1 109.50000 418.400000
24339 24340 24341 1 115.00000 209.200000
4848 24342 5735 1 109.50000 418.400000
4848 24342 7309 1 109.50000 418.400000
4848 24342 24343 1 109.50000 418.400000
5735 24342 7309 1 109.50000 418.400000
5735 24342 24343 1 109.50000 418.400000
7309 24342 24343 1 109.50000 418.400000
24342 24343 24344 1 115.00000 209.200000
2490 24345 7612 1 109.50000 418.400000
2490 24345 7613 1 109.50000 418.400000
2490 24345 24346 1 109.50000 418.400000
7612 24345 7613 1 109.50000 418.400000
7612 24345 24346 1 109.50000 418.400000
7613 24345 24346 1 109.50000 418.400000
24345 24346 24347 1 115.00000 209.200000
4497 24348 5673 1 109.50000 418.400000
4497 24348 10858 1 109.50000 418.400000
4497 24348 24349 1 109.50000 418.400000
5673 24348 10858 1 109.50000 418.400000
5673 24348 24349 1 109.50000 418.400000
10858 24348 24349 1 109.50000 418.400000
24348 24349 24350 1 115.00000 209.200000
1037 24351 7956 1 109.50000 418.400000
1037 24351 9734 1 109.50000 418.400000
1037 24351 24352 1 109.50000 418.400000
7956 24351 9734 1 109.50000 418.400000
7956 24351 24352 1 109.50000 418.400000
9734 24351 24352 1 109.50000 418.400000
24351 24352 24353 1 115.00000 209.200000
9276 24354 9992 1 109.50000 418.400000
9276 24354 10866 1 109.50000 418.400000
9276 24354 24355 1 109.50000 418.400000
9992 24354 10866 1 109.50000 418.400000
9992 24354 24355 1 109.50000 418.400000
10866 24354 24355 1 109.50000 418.400000
24354 24355 24356 1 115.00000 209.200000
8459 24357 10864 1 109.50000 418.400000
8459 24357 10867 1 109.50000 418.400000
8459 24357 24358 1 109.50000 418.400000
10864 24357 10867 1 109.50000 418.400000
10864 24357 24358 1 109.50000 418.400000
10867 24357 24358 1 109.50000 418.400000
24357 24358 24359 1 115.00000 209.200000
7843 24360 10080 1 109.50000 418.400000
7843 24360 10213 1 109.50000 418.400000
7843 24360 24361 1 109.50000 418.400000
10080 24360 10213 1 109.50000 418.400000
10080 24360 24361 1 109.50000 418.400000
10213 24360 24361 1 109.50000 418.400000
24360 24361 24362 1 115.00000 209.200000
6913 24363 7711 1 109.50000 418.400000
6913 24363 7861 1 109.50000 418.400000
6913 24363 24364 1 109.50000 418.400000
7711 24363 7861 1 109.50000 418.400000
7711 24363 24364 1 109.50000 418.400000
7861 24363 24364 1 109.50000 418.400000
24363 24364 24365 1 115.00000 209.200000
4209 24366 5092 1 109.50000 418.400000
4209 24366 9927 1 109.50000 418.400000
4209 24366 24367 1 109.50000 418.400000
5092 24366 9927 1 109.50000 418.400000
5092 24366 24367 1 109.50000 418.400000
9927 24366 24367 1 109.50000 418.400000
24366 24367 24368 1 115.00000 209.200000
7127 24369 9505 1 109.50000 418.400000
7127 24369 9506 1 109.50000 418.400000
7127 24369 24370 1 109.50000 418.400000
9505 24369 9506 1 109.50000 418.400000
9505 24369 24370 1 109.50000 418.400000
9506 24369 24370 1 109.50000 418.400000
24369 24370 24371 1 115.00000 209.200000
262 24372 9690 1 109.50000 418.400000
262 24372 10891 1 109.50000 418.400000
262 24372 24373 1 109.50000 418.400000
9690 24372 10891 1 109.50000 418.400000
9690 24372 24373 1 109.50000 418.400000
10891 24372 24373 1 109.50000 418.400000
24372 24373 24374 1 115.00000 209.200000
348 24375 349 1 109.50000 418.400000
348 24375 350 1 109.50000 418.400000
348 24375 24376 1 109.50000 418.400000
349 24375 350 1 109.50000 418.400000
349 24375 24376 1 109.50000 418.400000
350 24375 24376 1 109.50000 418.400000
24375 24376 24377 1 115.00000 209.200000
5473 24378 9104 1 109.50000 418.400000
5473 24378 9471 1 109.50000 418.400000
5473 24378 24379 1 109.50000 418.400000
9104 24378 9471 1 109.50000 418.400000
9104 24378 24379 1 109.50000 418.400000
9471 24378 24379 1 109.50000 418.400000
24378 24379 24380 1 115.00000 209.200000
8275 24381 10439 1 109.50000 418.400000
8275 24381 10911 1 109.50000 418.400000
8275 24381 24382 1 109.50000 418.400000
10439 24381 10911 1 109.50000 418.400000
10439 24381 24382 1 109.50000 418.400000
10911 24381 24382 1 109.50000 418.400000
24381 24382 24383 1 115.00000 209.200000
4041 24384 8961 1 109.50000 418.400000
4041 24384 10146 1 109.50000 418.400000
4041 24384 24385 1 109.50000 418.400000
8961 24384 10146 1 109.50000 418.400000
8961 24384 24385 1 109.50000 418.400000
10146 24384 24385 1 109.50000 418.400000
24384 24385 24386 1 115.00000 209.200000
8799 24387 10705 1 109.50000 418.400000
8799 24387 10923 1 109.50000 418.400000
8799 24387 24388 1 109.50000 418.400000
10705 24387 10923 1 109.50000 418.400000
10705 24387 24388 1 109.50000 418.400000
10923 24387 24388 1 109.50000 418.400000
24387 24388 24389 1 115.00000 209.200000
5786 24390 9740 1 109.50000 418.400000
5786 24390 10814 1 109.50000 418.400000
5786 24390 24391 1 109.50000 418.400000
9740 24390 10814 1 109.50000 418.400000
9740 24390 24391 1 109.50000 418.400000
10814 24390 24391 1 109.50000 418.400000
24390 24391 24392 1 115.00000 209.200000
6441 24393 8569 1 109.50000 418.400000
6441 24393 10759 1 109.50000 418.400000
6441 24393 24394 1 109.50000 418.400000
8569 24393 10759 1 109.50000 418.400000
8569 24393 24394 1 109.50000 418.400000
10759 24393 24394 1 109.50000 418.400000
24393 24394 24395 1 115.00000 209.200000
3570 24396 8709 1 109.50000 418.400000
3570 24396 9743 1 109.50000 418.400000
3570 24396 24397 1 109.50000 418.400000
8709 24396 9743 1 109.50000 418.400000
8709 24396 24397 1 109.50000 418.400000
9743 24396 24397 1 109.50000 418.400000
24396 24397 24398 1 115.00000 209.200000
4031 24399 7264 1 109.50000 418.400000
4031 24399 10488 1 109.50000 418.400000
4031 24399 24400 1 109.50000 418.400000
7264 24399 10488 1 109.50000 418.400000
7264 24399 24400 1 109.50000 418.400000
10488 24399 24400 1 109.50000 418.400000
24399 24400 24401 1 115.00000 209.200000
5356 24402 9950 1 109.50000 418.400000
5356 24402 10911 1 109.50000 418.400000
5356 24402 24403 1 109.50000 418.400000
9950 24402 10911 1 109.50000 418.400000
9950 24402 24403 1 109.50000 418.400000
10911 24402 24403 1 109.50000 418.400000
24402 24403 24404 1 115.00000 209.200000
1727 24405 6638 1 109.50000 418.400000
1727 24405 7818 1 109.50000 418.400000
1727 24405 24406 1 109.50000 418.400000
6638 24405 7818 1 109.50000 418.400000
6638 24405 24406 1 109.50000 418.400000
7818 24405 24406 1 109.50000 418.400000
24405 24406 24407 1 115.00000 209.200000
272 24408 6225 1 109.50000 418.400000
272 24408 9827 1 109.50000 418.400000
272 24408 24409 1 109.50000 418.400000
6225 24408 9827 1 109.50000 418.400000
6225 24408 24409 1 109.50000 418.400000
9827 24408 24409 1 109.50000 418.400000
24408 24409 24410 1 115.00000 209.200000
8815 24411 10457 1 109.50000 418.400000
8815 24411 10942 1 109.50000 418.400000
8815 24411 24412 1 109.50000 418.400000
10457 24411 10942 1 109.50000 418.400000
10457 24411 24412 1 109.50000 418.400000
10942 24411 24412 1 109.50000 418.400000
24411 24412 24413 1 115.00000 209.200000
4437 24414 4853 1 109.50000 418.400000
4437 24414 7741 1 109.50000 418.400000
4437 24414 24415 1 109.50000 418.400000
4853 24414 7741 1 109.50000 418.400000
4853 24414 24415 1 109.50000 418.400000
7741 24414 24415 1 109.50000 418.400000
24414 24415 24416 1 115.00000 209.200000
10049 24417 10949 1 109.50000 418.400000
10049 24417 10950 1 109.50000 418.400000
10049 24417 24418 1 109.50000 418.400000
10949 24417 10950 1 109.50000 418.400000
10949 24417 24418 1 109.50000 418.400000
10950 24417 24418 1 109.50000 418.400000
24417 24418 24419 1 115.00000 209.200000
518 24420 9247 1 109.50000 418.400000
518 24420 9744 1 109.50000 418.400000
518 24420 24421 1 109.50000 418.400000
9247 24420 9744 1 109.50000 418.400000
9247 24420 24421 1 109.50000 418.400000
9744 24420 24421 1 109.50000 418.400000
24420 24421 24422 1 115.00000 209.200000
4955 24423 8067 1 109.50000 418.400000
4955 24423 10686 1 109.50000 418.400000
4955 24423 24424 1 109.50000 418.400000
8067 24423 10686 1 109.50000 418.400000
8067 24423 24424 1 109.50000 418.400000
10686 24423 24424 1 109.50000 418.400000
24423 24424 24425 1 115.00000 209.200000
1781 24426 6734 1 109.50000 418.400000
1781 24426 6735 1 109.50000 418.400000
1781 24426 24427 1 109.50000 418.400000
6734 24426 6735 1 109.50000 418.400000
6734 24426 24427 1 109.50000 418.400000
6735 24426 24427 1 109.50000 418.400000
24426 24427 24428 1 115.00000 209.200000
10678 24429 10964 1 109.50000 418.400000
10678 24429 10965 1 109.50000 418.400000
10678 24429 24430 1 109.50000 418.400000
10964 24429 10965 1 109.50000 418.400000
10964 24429 24430 1 109.50000 418.400000
10965 24429 24430 1 109.50000 418.400000
24429 24430 24431 1 115.00000 209.200000
7733 24432 7877 1 109.50000 418.400000
7733 24432 10940 1 109.50000 418.400000
7733 24432 24433 1 109.50000 418.400000
7877 24432 10940 1 109.50000 418.400000
7877 24432 24433 1 109.50000 418.400000
10940 24432 24433 1 109.50000 418.400000
24432 24433 24434 1 115.00000 209.200000
66 24435 5220 1 109.50000 418.400000
66 24435 8262 1 109.50000 418.400000
66 24435 24436 1 109.50000 418.400000
5220 24435 8262 1 109.50000 418.400000
5220 24435 24436 1 109.50000 418.400000
8262 24435 24436 1 109.50000 418.400000
24435 24436 24437 1 115.00000 209.200000
9191 24438 10671 1 109.50000 418.400000
9191 24438 10988 1 109.50000 418.400000
9191 24438 24439 1 109.50000 418.400000
10671 24438 10988 1 109.50000 418.400000
10671 24438 24439 1 109.50000 418.400000
10988 24438 24439 1 109.50000 418.400000
24438 24439 24440 1 115.00000 209.200000
4221 24441 5270 1 109.50000 418.400000
4221 24441 10866 1 109.50000 418.400000
4221 24441 24442 1 109.50000 418.400000
5270 24441 10866 1 109.50000 418.400000
5270 24441 24442 1 109.50000 418.400000
10866 24441 24442 1 109.50000 418.400000
24441 24442 24443 1 115.00000 209.200000
5671 24444 7291 1 109.50000 418.400000
5671 24444 10536 1 109.50000 418.400000
5671 24444 24445 1 109.50000 418.400000
7291 24444 10536 1 109.50000 418.400000
7291 24444 24445 1 109.50000 418.400000
10536 24444 24445 1 109.50000 418.400000
24444 24445 24446 1 115.00000 209.200000
5627 24447 7257 1 109.50000 418.400000
5627 24447 10991 1 109.50000 418.400000
5627 24447 24448 1 109.50000 418.400000
7257 24447 10991 1 109.50000 418.400000
7257 24447 24448 1 109.50000 418.400000
10991 24447 24448 1 109.50000 418.400000
24447 24448 24449 1 115.00000 209.200000
3207 24450 9561 1 109.50000 418.400000
3207 24450 11149 1 109.50000 418.400000
3207 24450 24451 1 109.50000 418.400000
9561 24450 11149 1 109.50000 418.400000
9561 24450 24451 1 109.50000 418.400000
11149 24450 24451 1 109.50000 418.400000
24450 24451 24452 1 115.00000 209.200000
1444 24453 9025 1 109.50000 418.400000
1444 24453 10995 1 109.50000 418.400000
1444 24453 24454 1 109.50000 418.400000
9025 24453 10995 1 109.50000 418.400000
9025 24453 24454 1 109.50000 418.400000
10995 24453 24454 1 109.50000 418.400000
24453 24454 24455 1 115.00000 209.200000
6144 24456 6987 1 109.50000 418.400000
6144 24456 8304 1 109.50000 418.400000
6144 24456 24457 1 109.50000 418.400000
6987 24456 8304 1 109.50000 418.400000
6987 24456 24457 1 109.50000 418.400000
8304 24456 24457 1 109.50000 418.400000
24456 24457 24458 1 115.00000 209.200000
708 24459 7806 1 109.50000 418.400000
708 24459 10841 1 109.50000 418.400000
708 24459 24460 1 109.50000 418.400000
7806 24459 10841 1 109.50000 418.400000
7806 24459 24460 1 109.50000 418.400000
10841 24459 24460 1 109.50000 418.400000
24459 24460 24461 1 115.00000 209.200000
6425 24462 10611 1 109.50000 418.400000
6425 24462 11009 1 109.50000 418.400000
6425 24462 24463 1 109.50000 418.400000
10611 24462 11009 1 109.50000 418.400000
10611 24462 24463 1 109.50000 418.400000
11009 24462 24463 1 109.50000 418.400000
24462 24463 24464 1 115.00000 209.200000
3470 24465 10046 1 109.50000 418.400000
3470 24465 10995 1 109.50000 418.400000
3470 24465 24466 1 109.50000 418.400000
10046 24465 10995 1 109.50000 418.400000
10046 24465 24466 1 109.50000 418.400000
10995 24465 24466 1 109.50000 418.400000
24465 24466 24467 1 115.00000 209.200000
4790 24468 9021 1 109.50000 418.400000
4790 24468 10756 1 109.50000 418.400000
4790 24468 24469 1 109.50000 418.400000
9021 24468 10756 1 109.50000 418.400000
9021 24468 24469 1 109.50000 418.400000
10756 24468 24469 1 109.50000 418.400000
24468 24469 24470 1 115.00000 209.200000
1623 24471 9645 1 109.50000 418.400000
1623 24471 11032 1 109.50000 418.400000
1623 24471 24472 1 109.50000 418.400000
9645 24471 11032 1 109.50000 418.400000
9645 24471 24472 1 109.50000 418.400000
11032 24471 24472 1 109.50000 418.400000
24471 24472 24473 1 115.00000 209.200000
6617 24474 8588 1 109.50000 418.400000
6617 24474 9756 1 109.50000 418.400000
6617 24474 24475 1 109.50000 418.400000
8588 24474 9756 1 109.50000 418.400000
8588 24474 24475 1 109.50000 418.400000
9756 24474 24475 1 109.50000 418.400000
24474 24475 24476 1 115.00000 209.200000
652 24477 3221 1 109.50000 418.400000
652 24477 11163 1 109.50000 418.400000
652 24477 24478 1 109.50000 418.400000
3221 24477 11163 1 109.50000 418.400000
3221 24477 24478 1 109.50000 418.400000
11163 24477 24478 1 109.50000 418.400000
24477 24478 24479 1 115.00000 209.200000
4735 24480 9701 1 109.50000 418.400000
4735 24480 10916 1 109.50000 418.400000
4735 24480 24481 1 109.50000 418.400000
9701 24480 10916 1 109.50000 418.400000
9701 24480 24481 1 109.50000 418.400000
10916 24480 24481 1 109.50000 418.400000
24480 24481 24482 1 115.00000 209.200000
9691 24483 10852 1 109.50000 418.400000
9691 24483 11155 1 109.50000 418.400000
9691 24483 24484 1 109.50000 418.400000
10852 24483 11155 1 109.50000 418.400000
10852 24483 24484 1 109.50000 418.400000
11155 24483 24484 1 109.50000 418.400000
24483 24484 24485 1 115.00000 209.200000
1644 24486 6386 1 109.50000 418.400000
1644 24486 10906 1 109.50000 418.400000
1644 24486 24487 1 109.50000 418.400000
6386 24486 10906 1 109.50000 418.400000
6386 24486 24487 1 109.50000 418.400000
10906 24486 24487 1 109.50000 418.400000
24486 24487 24488 1 115.00000 209.200000
9668 24489 10569 1 109.50000 418.400000
9668 24489 10902 1 109.50000 418.400000
9668 24489 24490 1 109.50000 418.400000
10569 24489 10902 1 109.50000 418.400000
10569 24489 24490 1 109.50000 418.400000
10902 24489 24490 1 109.50000 418.400000
24489 24490 24491 1 115.00000 209.200000
10030 24492 10544 1 109.50000 418.400000
10030 24492 11069 1 109.50000 418.400000
10030 24492 24493 1 109.50000 418.400000
10544 24492 11069 1 109.50000 418.400000
10544 24492 24493 1 109.50000 418.400000
11069 24492 24493 1 109.50000 418.400000
24492 24493 24494 1 115.00000 209.200000
721 24495 4292 1 109.50000 418.400000
721 24495 11075 1 109.50000 418.400000
721 24495 24496 1 109.50000 418.400000
4292 24495 11075 1 109.50000 418.400000
4292 24495 24496 1 109.50000 418.400000
11075 24495 24496 1 109.50000 418.400000
24495 24496 24497 1 115.00000 209.200000
2500 24498 2921 1 109.50000 418.400000
2500 24498 7708 1 109.50000 418.400000
2500 24498 24499 1 109.50000 418.400000
2921 24498 7708 1 109.50000 418.400000
2921 24498 24499 1 109.50000 418.400000
7708 24498 24499 1 109.50000 418.400000
24498 24499 24500 1 115.00000 209.200000
1260 24501 4517 1 109.50000 418.400000
1260 24501 9202 1 109.50000 418.400000
1260 24501 24502 1 109.50000 418.400000
4517 24501 9202 1 109.50000 418.400000
4517 24501 24502 1 109.50000 418.400000
9202 24501 24502 1 109.50000 418.400000
24501 24502 24503 1 115.00000 209.200000
6931 24504 10047 1 109.50000 418.400000
6931 24504 11078 1 109.50000 418.400000
6931 24504 24505 1 109.50000 418.400000
10047 24504 11078 1 109.50000 418.400000
10047 24504 24505 1 109.50000 418.400000
11078 24504 24505 1 109.50000 418.400000
24504 24505 24506 1 115.00000 209.200000
1112 24507 5188 1 109.50000 418.400000
1112 24507 9395 1 109.50000 418.400000
1112 24507 24508 1 109.50000 418.400000
5188 24507 9395 1 109.50000 418.400000
5188 24507 24508 1 109.50000 418.400000
9395 24507 24508 1 109.50000 418.400000
24507 24508 24509 1 115.00000 209.200000
2963 24510 5043 1 109.50000 418.400000
2963 24510 8444 1 109.50000 418.400000
2963 24510 24511 1 109.50000 418.400000
5043 24510 8444 1 109.50000 418.400000
5043 24510 24511 1 109.50000 418.400000
8444 24510 24511 1 109.50000 418.400000
24510 24511 24512 1 115.00000 209.200000
1751 24513 4604 1 109.50000 418.400000
1751 24513 10764 1 109.50000 418.400000
1751 24513 24514 1 109.50000 418.400000
4604 24513 10764 1 109.50000 418.400000
4604 24513 24514 1 109.50000 418.400000
10764 24513 24514 1 109.50000 418.400000
24513 24514 24515 1 115.00000 209.200000
1407 24516 10329 1 109.50000 418.400000
1407 24516 10385 1 109.50000 418.400000
1407 24516 24517 1 109.50000 418.400000
10329 24516 10385 1 109.50000 418.400000
10329 24516 24517 1 109.50000 418.400000
10385 24516 24517 1 109.50000 418.400000
24516 24517 24518 1 115.00000 209.200000
245 24519 1120 1 109.50000 418.400000
245 24519 10790 1 109.50000 418.400000
245 24519 24520 1 109.50000 418.400000
1120 24519 10790 1 109.50000 418.400000
1120 24519 24520 1 109.50000 418.400000
10790 24519 24520 1 109.50000 418.400000
24519 24520 24521 1 115.00000 209.200000
6150 24522 7638 1 109.50000 418.400000
6150 24522 11014 1 109.50000 418.400000
6150 24522 24523 1 109.50000 418.400000
7638 24522 11014 1 109.50000 418.400000
7638 24522 24523 1 109.50000 418.400000
11014 24522 24523 1 109.50000 418.400000
24522 24523 24524 1 115.00000 209.200000
1224 24525 4238 1 109.50000 418.400000
1224 24525 8760 1 109.50000 418.400000
1224 24525 24526 1 109.50000 418.400000
4238 24525 8760 1 109.50000 418.400000
4238 24525 24526 1 109.50000 418.400000
8760 24525 24526 1 109.50000 418.400000
24525 24526 24527 1 115.00000 209.200000
2452 24528 8619 1 109.50000 418.400000
2452 24528 8954 1 109.50000 418.400000
2452 24528 24529 1 109.50000 418.400000
8619 24528 8954 1 109.50000 418.400000
8619 24528 24529 1 109.50000 418.400000
8954 24528 24529 1 109.50000 418.400000
24528 24529 24530 1 115.00000 209.200000
4779 24531 6100 1 109.50000 418.400000
4779 24531 9541 1 109.50000 418.400000
4779 24531 24532 1 109.50000 418.400000
6100 24531 9541 1 109.50000 418.400000
6100 24531 24532 1 109.50000 418.400000
9541 24531 24532 1 109.50000 418.400000
24531 24532 24533 1 115.00000 209.200000
1984 24534 3195 1 109.50000 418.400000
1984 24534 10747 1 109.50000 418.400000
1984 24534 24535 1 109.50000 418.400000
3195 24534 10747 1 109.50000 418.400000
3195 24534 24535 1 109.50000 418.400000
10747 24534 24535 1 109.50000 418.400000
24534 24535 24536 1 115.00000 209.200000
9835 24537 10766 1 109.50000 418.400000
9835 24537 11081 1 109.50000 418.400000
9835 24537 24538 1 109.50000 418.400000
10766 24537 11081 1 109.50000 418.400000
10766 24537 24538 1 109.50000 418.400000
11081 24537 24538 1 109.50000 418.400000
24537 24538 24539 1 115.00000 209.200000
3974 24540 4432 1 109.50000 418.400000
3974 24540 4519 1 109.50000 418.400000
3974 24540 24541 1 109.50000 418.400000
4432 24540 4519 1 109.50000 418.400000
4432 24540 24541 1 109.50000 418.400000
4519 24540 24541 1 109.50000 418.400000
24540 24541 24542 1 115.00000 209.200000
7863 24543 10587 1 109.50000 418.400000
7863 24543 11162 1 109.50000 418.400000
7863 24543 24544 1 109.50000 418.400000
10587 24543 11162 1 109.50000 418.400000
10587 24543 24544 1 109.50000 418.400000
11162 24543 24544 1 109.50000 418.400000
24543 24544 24545 1 115.00000 209.200000
6567 24546 9576 1 109.50000 418.400000
6567 24546 10603 1 109.50000 418.400000
6567 24546 24547 1 109.50000 418.400000
9576 24546 10603 1 109.50000 418.400000
9576 24546 24547 1 109.50000 418.400000
10603 24546 24547 1 109.50000 418.400000
24546 24547 24548 1 115.00000 209.200000
3775 24549 5269 1 109.50000 418.400000
3775 24549 7991 1 109.50000 418.400000
3775 24549 24550 1 109.50000 418.400000
5269 24549 7991 1 109.50000 418.400000
5269 24549 24550 1 109.50000 418.400000
7991 24549 24550 1 109.50000 418.400000
24549 24550 24551 1 115.00000 209.200000
978 24552 2313 1 109.50000 418.400000
978 24552 4530 1 109.50000 418.400000
978 24552 24553 1 109.50000 418.400000
2313 24552 4530 1 109.50000 418.400000
2313 24552 24553 1 109.50000 418.400000
4530 24552 24553 1 109.50000 418.400000
24552 24553 24554 1 115.00000 209.200000
3353 24555 10075 1 109.50000 418.400000
3353 24555 10974 1 109.50000 418.400000
3353 24555 24556 1 109.50000 418.400000
10075 24555 10974 1 109.50000 418.400000
10075 24555 24556 1 109.50000 418.400000
10974 24555 24556 1 109.50000 418.400000
24555 24556 24557 1 115.00000 209.200000
2036 24558 9578 1 109.50000 418.400000
2036 24558 10004 1 109.50000 418.400000
2036 24558 24559 1 109.50000 418.400000
9578 24558 10004 1 109.50000 418.400000
9578 24558 24559 1 109.50000 418.400000
10004 24558 24559 1 109.50000 418.400000
24558 24559 24560 1 115.00000 209.200000
9903 24561 10158 1 109.50000 418.400000
9903 24561 10413 1 109.50000 418.400000
9903 24561 24562 1 109.50000 418.400000
10158 24561 10413 1 109.50000 418.400000
10158 24561 24562 1 109.50000 418.400000
10413 24561 24562 1 109.50000 418.400000
24561 24562 24563 1 115.00000 209.200000
1922 24564 5841 1 109.50000 418.400000
1922 24564 6262 1 109.50000 418.400000
1922 24564 24565 1 109.50000 418.400000
5841 24564 6262 1 109.50000 418.400000
5841 24564 24565 1 109.50000 418.400000
6262 24564 24565 1 109.50000 418.400000
24564 24565 24566 1 115.00000 209.200000
6698 24567 11049 1 109.50000 418.400000
6698 24567 11116 1 109.50000 418.400000
6698 24567 24568 1 109.50000 418.400000
11049 24567 11116 1 109.50000 418.400000
11049 24567 24568 1 109.50000 418.400000
11116 24567 24568 1 109.50000 418.400000
24567 24568 24569 1 115.00000 209.200000
7008 24570 7978 1 109.50000 418.400000
7008 24570 10582 1 109.50000 418.400000
7008 24570 24571 1 109.50000 418.400000
7978 24570 10582 1 109.50000 418.400000
7978 24570 24571 1 109.50000 418.400000
10582 24570 24571 1 109.50000 418.400000
24570 24571 24572 1 115.00000 209.200000
2150 24573 3626 1 109.50000 418.400000
2150 24573 11110 1 109.50000 418.400000
2150 24573 24574 1 109.50000 418.400000
3626 24573 11110 1 109.50000 418.400000
3626 24573 24574 1 109.50000 418.400000
11110 24573 24574 1 109.50000 418.400000
24573 24574 24575 1 115.00000 209.200000
5468 24576 8361 1 109.50000 418.400000
5468 24576 11029 1 109.50000 418.400000
5468 24576 24577 1 109.50000 418.400000
8361 24576 11029 1 109.50000 418.400000
8361 24576 24577 1 109.50000 418.400000
11029 24576 24577 1 109.50000 418.400000
24576 24577 24578 1 115.00000 209.200000
785 24579 3463 1 109.50000 418.400000
785 24579 6500 1 109.50000 418.400000
785 24579 24580 1 109.50000 418.400000
3463 24579 6500 1 109.50000 418.400000
3463 24579 24580 1 109.50000 418.400000
6500 24579 24580 1 109.50000 418.400000
24579 24580 24581 1 115.00000 209.200000
4452 24582 8927 1 109.50000 418.400000
4452 24582 10776 1 109.50000 418.400000
4452 24582 24583 1 109.50000 418.400000
8927 24582 10776 1 109.50000 418.400000
8927 24582 24583 1 109.50000 418.400000
10776 24582 24583 1 109.50000 418.400000
24582 24583 24584 1 115.00000 209.200000
7908 24585 10711 1 109.50000 418.400000
7908 24585 11044 1 109.50000 418.400000
7908 24585 24586 1 109.50000 418.400000
10711 24585 11044 1 109.50000 418.400000
10711 24585 24586 1 109.50000 418.400000
11044 24585 24586 1 109.50000 418.400000
24585 24586 24587 1 115.00000 209.200000
6538 24588 10087 1 109.50000 418.400000
6538 24588 10670 1 109.50000 418.400000
6538 24588 24589 1 109.50000 418.400000
10087 24588 10670 1 109.50000 418.400000
10087 24588 24589 1 109.50000 418.400000
10670 24588 24589 1 109.50000 418.400000
24588 24589 24590 1 115.00000 209.200000
6341 24591 7990 1 109.50000 418.400000
6341 24591 11125 1 109.50000 418.400000
6341 24591 24592 1 109.50000 418.400000
7990 24591 11125 1 109.50000 418.400000
7990 24591 24592 1 109.50000 418.400000
11125 24591 24592 1 109.50000 418.400000
24591 24592 24593 1 115.00000 209.200000
4119 24594 6915 1 109.50000 418.400000
4119 24594 10371 1 109.50000 418.400000
4119 24594 24595 1 109.50000 418.400000
6915 24594 10371 1 109.50000 418.400000
6915 24594 24595 1 109.50000 418.400000
10371 24594 24595 1 109.50000 418.400000
24594 24595 24596 1 115.00000 209.200000
122 24597 867 1 109.50000 418.400000
122 24597 10945 1 109.50000 418.400000
122 24597 24598 1 109.50000 418.400000
867 24597 10945 1 109.50000 418.400000
867 24597 24598 1 109.50000 418.400000
10945 24597 24598 1 109.50000 418.400000
24597 24598 24599 1 115.00000 209.200000
5415 24600 9807 1 109.50000 418.400000
5415 24600 10083 1 109.50000 418.400000
5415 24600 24601 1 109.50000 418.400000
9807 24600 10083 1 109.50000 418.400000
9807 24600 24601 1 109.50000 418.400000
10083 24600 24601 1 109.50000 418.400000
24600 24601 24602 1 115.00000 209.200000
3736 24603 7627 1 109.50000 418.400000
3736 24603 9844 1 109.50000 418.400000
3736 24603 24604 1 109.50000 418.400000
7627 24603 9844 1 109.50000 418.400000
7627 24603 24604 1 109.50000 418.400000
9844 24603 24604 1 109.50000 418.400000
24603 24604 24605 1 115.00000 209.200000
3776 24606 6735 1 109.50000 418.400000
3776 24606 10626 1 109.50000 418.400000
3776 24606 24607 1 109.50000 418.400000
6735 24606 10626 1 109.50000 418.400000
6735 24606 24607 1 109.50000 418.400000
10626 24606 24607 1 109.50000 418.400000
24606 24607 24608 1 115.00000 209.200000
3738 24609 4384 1 109.50000 418.400000
3738 24609 5974 1 109.50000 418.400000
3738 24609 24610 1 109.50000 418.400000
4384 24609 5974 1 109.50000 418.400000
4384 24609 24610 1 109.50000 418.400000
5974 24609 24610 1 109.50000 418.400000
24609 24610 24611 1 115.00000 209.200000
2652 24612 7037 1 109.50000 418.400000
2652 24612 10555 1 109.50000 418.400000
2652 24612 24613 1 109.50000 418.400000
7037 24612 10555 1 109.50000 418.400000
7037 24612 24613 1 109.50000 418.400000
10555 24612 24613 1 109.50000 418.400000
24612 24613 24614 1 115.00000 209.200000
4733 24615 9971 1 109.50000 418.400000
4733 24615 10036 1 109.50000 418.400000
4733 24615 24616 1 109.50000 418.400000
9971 24615 10036 1 109.50000 418.400000
9971 24615 24616 1 109.50000 418.400000
10036 24615 24616 1 109.50000 418.400000
24615 24616 24617 1 115.00000 209.200000
5540 24618 8923 1 109.50000 418.400000
5540 24618 10632 1 109.50000 418.400000
5540 24618 24619 1 109.50000 418.400000
8923 24618 10632 1 109.50000 418.400000
8923 24618 24619 1 109.50000 418.400000
10632 24618 24619 1 109.50000 418.400000
24618 24619 24620 1 115.00000 209.200000
6151 24621 8081 1 109.50000 418.400000
6151 24621 10148 1 109.50000 418.400000
6151 24621 24622 1 109.50000 418.400000
8081 24621 10148 1 109.50000 418.400000
8081 24621 24622 1 109.50000 418.400000
10148 24621 24622 1 109.50000 418.400000
24621 24622 24623 1 115.00000 209.200000
6303 24624 9852 1 109.50000 418.400000
6303 24624 24625 1 109.50000 418.400000
6303 24624 24627 1 109.50000 418.400000
9852 24624 24625 1 109.50000 418.400000
9852 24624 24627 1 109.50000 418.400000
24625 24624 24627 1 109.50000 418.400000
24624 24625 24626 1 115.00000 209.200000
24624 24627 24628 1 115.00000 209.200000
7113 24629 9899 1 109.50000 418.400000
7113 24629 24630 1 109.50000 418.400000
7113 24629 24632 1 109.50000 418.400000
9899 24629 24630 1 109.50000 418.400000
9899 24629 24632 1 109.50000 418.400000
24630 24629 24632 1 109.50000 418.400000
24629 24630 24631 1 115.00000 209.200000
24629 24632 24633 1 115.00000 209.200000
3041 24634 6187 1 109.50000 418.400000
3041 24634 24635 1 109.50000 418.400000
3041 24634 24637 1 109.50000 418.400000
6187 24634 24635 1 109.50000 418.400000
6187 24634 24637 1 109.50000 418.400000
24635 24634 24637 1 109.50000 418.400000
24634 24635 24636 1 115.00000 209.200000
24634 24637 24638 1 115.00000 209.200000
6939 24639 9172 1 109.50000 418.400000
6939 24639 24640 1 109.50000 418.400000
6939 24639 24642 1 109.50000 418.400000
9172 24639 24640 1 109.50000 418.400000
9172 24639 24642 1 109.50000 418.400000
24640 24639 24642 1 109.50000 418.400000
24639 24640 24641 1 115.00000 209.200000
24639 24642 24643 1 115.00000 209.200000
1684 24644 5566 1 109.50000 418.400000
1684 24644 24645 1 109.50000 418.400000
1684 24644 24647 1 109.50000 418.400000
5566 24644 24645 1 109.50000 418.400000
5566 24644 24647 1 109.50000 418.400000
24645 24644 24647 1 109.50000 418.400000
24644 24645 24646 1 115.00000 209.200000
24644 24647 24648 1 115.00000 209.200000
2009 24649 10063 1 109.50000 418.400000
2009 24649 24650 1 109.50000 418.400000
2009 24649 24652 1 109.50000 418.400000
10063 24649 24650 1 109.50000 418.400000
10063 24649 24652 1 109.50000 418.400000
24650 24649 24652 1 109.50000 418.400000
24649 24650 24651 1 115.00000 209.200000
24649 24652 24653 1 115.00000 209.200000
3347 24654 10567 1 109.50000 418.400000
3347 24654 24655 1 109.50000 418.400000
3347 24654 24657 1 109.50000 418.400000
10567 24654 24655 1 109.50000 418.400000
10567 24654 24657 1 109.50000 418.400000
24655 24654 24657 1 109.50000 418.400000
24654 24655 24656 1 115.00000 209.200000
24654 24657 24658 1 115.00000 209.200000
8412 24659 10940 1 109.50000 418.400000
8412 24659 24660 1 109.50000 418.400000
8412 24659 24662 1 109.50000 418.400000
10940 24659 24660 1 109.50000 418.400000
10940 24659 24662 1 109.50000 418.400000
24660 24659 24662 1 109.50000 418.400000
24659 24660 24661 1 115.00000 209.200000
24659 24662 24663 1 115.00000 209.200000
10829 24664 10957 1 109.50000 418.400000
10829 24664 24665 1 109.50000 418.400000
10829 24664 24667 1 109.50000 418.400000
10957 24664 24665 1 109.50000 418.400000
10957 24664 24667 1 109.50000 418.400000
24665 24664 24667 1 109.50000 418.400000
24664 24665 24666 1 115.00000 209.200000
24664 24667 24668 1 115.00000 209.200000
985 24669 10949 1 109.50000 418.400000
985 24669 24670 1 109.50000 418.400000
985 24669 24672 1 109.50000 418.400000
10949 24669 24670 1 109.50000 418.400000
10949 24669 24672 1 109.50000 418.400000
24670 24669 24672 1 109.50000 418.400000
24669 24670 24671 1 115.00000 209.200000
24669 24672 24673 1 115.00000 209.200000
3537 24674 9859 1 109.50000 418.400000
3537 24674 24675 1 109.50000 418.400000
3537 24674 24677 1 109.50000 418.400000
9859 24674 24675 1 109.50000 418.400000
9859 24674 24677 1 109.50000 418.400000
24675 24674 24677 1 109.50000 418.400000
24674 24675 24676 1 115.00000 209.200000
24674 24677 24678 1 115.00000 209.200000
2026 24679 5542 1 109.50000 418.400000
2026 24679 24680 1 109.50000 418.400000
2026 24679 24682 1 109.50000 418.400000
5542 24679 24680 1 109.50000 418.400000
5542 24679 24682 1 109.50000 418.400000
24680 24679 24682 1 109.50000 418.400000
24679 24680 24681 1 115.00000 209.200000
24679 24682 24683 1 115.00000 209.200000
9583 24684 10463 1 109.50000 418.400000
9583 24684 24685 1 109.50000 418.400000
9583 24684 24687 1 109.50000 418.400000
10463 24684 24685 1 109.50000 418.400000
10463 24684 24687 1 109.50000 418.400000
24685 24684 24687 1 109.50000 418.400000
24684 24685 24686 1 115.00000 209.200000
24684 24687 24688 1 115.00000 209.200000
4087 24689 10165 1 109.50000 418.400000
4087 24689 24690 1 109.50000 418.400000
4087 24689 24692 1 109.50000 418.400000
10165 24689 24690 1 109.50000 418.400000
10165 24689 24692 1 109.50000 418.400000
24690 24689 24692 1 109.50000 418.400000
24689 24690 24691 1 115.00000 209.200000
24689 24692 24693 1 115.00000 209.200000
6251 24694 10923 1 109.50000 418.400000
6251 24694 24695 1 109.50000 418.400000
6251 24694 24697 1 109.50000 418.400000
10923 24694 24695 1 109.50000 418.400000
10923 24694 24697 1 109.50000 418.400000
24695 24694 24697 1 109.50000 418.400000
24694 24695 24696 1 115.00000 209.200000
24694 24697 24698 1 115.00000 209.200000
2893 24699 11044 1 109.50000 418.400000
2893 24699 24700 1 109.50000 418.400000
2893 24699 24702 1 109.50000 418.400000
11044 24699 24700 1 109.50000 418.400000
11044 24699 24702 1 109.50000 418.400000
24700 24699 24702 1 109.50000 418.400000
24699 24700 24701 1 115.00000 209.200000
24699 24702 24703 1 115.00000 209.200000
7311 24704 8290 1 109.50000 418.400000
7311 24704 24705 1 109.50000 418.400000
7311 24704 24707 1 109.50000 418.400000
8290 24704 24705 1 109.50000 418.400000
8290 24704 24707 1 109.50000 418.400000
24705 24704 24707 1 109.50000 418.400000
24704 24705 24706 1 115.00000 209.200000
24704 24707 24708 1 115.00000 209.200000
10124 24709 11062 1 109.50000 418.400000
10124 24709 24710 1 109.50000 418.400000
10124 24709 24712 1 109.50000 418.400000
11062 24709 24710 1 109.50000 418.400000
11062 24709 24712 1 109.50000 418.400000
24710 24709 24712 1 109.50000 418.400000
24709 24710 24711 1 115.00000 209.200000
24709 24712 24713 1 115.00000 209.200000
7813 24714 10355 1 109.50000 418.400000
7813 24714 24715 1 109.50000 418.400000
7813 24714 24717 1 109.50000 418.400000
10355 24714 24715 1 109.50000 418.400000
10355 24714 24717 1 109.50000 418.400000
24715 24714 24717 1 109.50000 418.400000
24714 24715 24716 1 115.00000 209.200000
24714 24717 24718 1 115.00000 209.200000
8865 24719 9164 1 109.50000 418.400000
8865 24719 24720 1 109.50000 418.400000
8865 24719 24722 1 109.50000 418.400000
9164 24719 24720 1 109.50000 418.400000
9164 24719 24722 1 109.50000 418.400000
24720 24719 24722 1 109.50000 418.400000
24719 24720 24721 1 115.00000 209.200000
24719 24722 24723 1 115.00000 209.200000
3543 24724 11092 1 109.50000 418.400000
3543 24724 24725 1 109.50000 418.400000
3543 24724 24727 1 109.50000 418.400000
11092 24724 24725 1 109.50000 418.400000
11092 24724 24727 1 109.50000 418.400000
24725 24724 24727 1 109.50000 418.400000
24724 24725 24726 1 115.00000 209.200000
24724 24727 24728 1 115.00000 209.200000
1231 24729 3418 1 109.50000 418.400000
1231 24729 24730 1 109.50000 418.400000
1231 24729 24732 1 109.50000 418.400000
3418 24729 24730 1 109.50000 418.400000
3418 24729 24732 1 109.50000 418.400000
24730 24729 24732 1 109.50000 418.400000
24729 24730 24731 1 115.00000 209.200000
24729 24732 24733 1 115.00000 209.200000
2780 24734 4587 1 109.50000 418.400000
2780 24734 24735 1 109.50000 418.400000
2780 24734 24737 1 109.50000 418.400000
4587 24734 24735 1 109.50000 418.400000
4587 24734 24737 1 109.50000 418.400000
24735 24734 24737 1 109.50000 418.400000
24734 24735 24736 1 115.00000 209.200000
24734 24737 24738 1 115.00000 209.200000
9402 24739 11097 1 109.50000 418.400000
9402 24739 24740 1 109.50000 418.400000
9402 24739 24742 1 109.50000 418.400000
11097 24739 24740 1 109.50000 418.400000
11097 24739 24742 1 109.50000 418.400000
24740 24739 24742 1 109.50000 418.400000
24739 24740 24741 1 115.00000 209.200000
24739 24742 24743 1 115.00000 209.200000
7551 24744 8520 1 109.50000 418.400000
7551 24744 24745 1 109.50000 418.400000
7551 24744 24747 1 109.50000 418.400000
8520 24744 24745 1 109.50000 418.400000
8520 24744 24747 1 109.50000 418.400000
24745 24744 24747 1 109.50000 418.400000
24744 24745 24746 1 115.00000 209.200000
24744 24747 24748 1 115.00000 209.200000
7909 24749 10821 1 109.50000 418.400000
7909 24749 24750 1 109.50000 418.400000
7909 24749 24752 1 109.50000 418.400000
10821 24749 24750 1 109.50000 418.400000
10821 24749 24752 1 109.50000 418.400000
24750 24749 24752 1 109.50000 418.400000
24749 24750 24751 1 115.00000 209.200000
24749 24752 24753 1 115.00000 209.200000
2914 24754 5091 1 109.50000 418.400000
2914 24754 24755 1 109.50000 418.400000
2914 24754 24757 1 109.50000 418.400000
5091 24754 24755 1 109.50000 418.400000
5091 24754 24757 1 109.50000 418.400000
24755 24754 24757 1 109.50000 418.400000
24754 24755 24756 1 115.00000 209.200000
24754 24757 24758 1 115.00000 209.200000
10222 24759 11032 1 109.50000 418.400000
10222 24759 24760 1 109.50000 418.400000
10222 24759 24762 1 109.50000 418.400000
11032 24759 24760 1 109.50000 418.400000
11032 24759 24762 1 109.50000 418.400000
24760 24759 24762 1 109.50000 418.400000
24759 24760 24761 1 115.00000 209.200000
24759 24762 24763 1 115.00000 209.200000
8511 24764 10784 1 109.50000 418.400000
8511 24764 24765 1 109.50000 418.400000
8511 24764 24767 1 109.50000 418.400000
10784 24764 24765 1 109.50000 418.400000
10784 24764 24767 1 109.50000 418.400000
24765 24764 24767 1 109.50000 418.400000
24764 24765 24766 1 115.00000 209.200000
24764 24767 24768 1 115.00000 209.200000
1993 24769 10550 1 109.50000 418.400000
1993 24769 24770 1 109.50000 418.400000
1993 24769 24772 1 109.50000 418.400000
10550 24769 24770 1 109.50000 418.400000
10550 24769 24772 1 109.50000 418.400000
24770 24769 24772 1 109.50000 418.400000
24769 24770 24771 1 115.00000 209.200000
24769 24772 24773 1 115.00000 209.200000
4168 24774 9877 1 109.50000 418.400000
4168 24774 24775 1 109.50000 418.400000
4168 24774 24777 1 109.50000 418.400000
9877 24774 24775 1 109.50000 418.400000
9877 24774 24777 1 109.50000 418.400000
24775 24774 24777 1 109.50000 418.400000
24774 24775 24776 1 115.00000 209.200000
24774 24777 24778 1 115.00000 209.200000
7598 24779 10808 1 109.50000 418.400000
7598 24779 24780 1 109.50000 418.400000
7598 24779 24782 1 109.50000 418.400000
10808 24779 24780 1 109.50000 418.400000
10808 24779 24782 1 109.50000 418.400000
24780 24779 24782 1 109.50000 418.400000
24779 24780 24781 1 115.00000 209.200000
24779 24782 24783 1 115.00000 209.200000
3569 24784 8097 1 109.50000 418.400000
3569 24784 24785 1 109.50000 418.400000
3569 24784 24787 1 109.50000 418.400000
8097 24784 24785 1 109.50000 418.400000
8097 24784 24787 1 109.50000 418.400000
24785 24784 24787 1 109.50000 418.400000
24784 24785 24786 1 115.00000 209.200000
24784 24787 24788 1 115.00000 209.200000
10053 24789 10545 1 109.50000 418.400000
10053 24789 24790 1 109.50000 418.400000
10053 24789 24792 1 109.50000 418.400000
10545 24789 24790 1 109.50000 418.400000
10545 24789 24792 1 109.50000 418.400000
24790 24789 24792 1 109.50000 418.400000
24789 24790 24791 1 115.00000 209.200000
24789 24792 24793 1 115.00000 209.200000
8841 24794 10957 1 109.50000 418.400000
8841 24794 24795 1 109.50000 418.400000
8841 24794 24797 1 109.50000 418.400000
10957 24794 24795 1 109.50000 418.400000
10957 24794 24797 1 109.50000 418.400000
24795 24794 24797 1 109.50000 418.400000
24794 24795 24796 1 115.00000 209.200000
24794 24797 24798 1 115.00000 209.200000
3633 24799 3635 1 109.50000 418.400000
3633 24799 24800 1 109.50000 418.400000
3633 24799 24802 1 109.50000 418.400000
3635 24799 24800 1 109.50000 418.400000
3635 24799 24802 1 109.50000 418.400000
24800 24799 24802 1 109.50000 418.400000
24799 24800 24801 1 115.00000 209.200000
24799 24802 24803 1 115.00000 209.200000
5997 24804 10786 1 109.50000 418.400000
5997 24804 24805 1 109.50000 418.400000
5997 24804 24807 1 109.50000 418.400000
10786 24804 24805 1 109.50000 418.400000
10786 24804 24807 1 109.50000 418.400000
24805 24804 24807 1 109.50000 418.400000
24804 24805 24806 1 115.00000 209.200000
24804 24807 24808 1 115.00000 209.200000
3013 24809 11137 1 109.50000 418.400000
3013 24809 24810 1 109.50000 418.400000
3013 24809 24812 1 109.50000 418.400000
11137 24809 24810 1 109.50000 418.400000
11137 24809 24812 1 109.50000 418.400000
24810 24809 24812 1 109.50000 418.400000
24809 24810 24811 1 115.00000 209.200000
24809 24812 24813 1 115.00000 209.200000

[ dihedrals ]
; ai aj ak al funct params
16214 16215 16216 16217 1 180.0000771 15.1670000 2
16214 16215 16216 16218 1 180.0000771 15.1670000 2
16217 16215 16216 16218 4 180.0000771 4.6024000 2
16214 16215 16224 16216 4 180.0000771 4.6024000 2
16214 16215 16224 16222 1 180.0000771 15.1670000 2
16214 16215 16224 16225 1 180.0000771 15.1670000 2
16216 16215 16224 16222 1 180.0000771 15.1670000 2
16216 16215 16224 16225 1 180.0000771 15.1670000 2
16217 16216 16215 16224 1 180.0000771 15.1670000 2
16218 16216 16215 16224 1 180.0000771 15.1670000 2
16215 16216 16218 16219 1 180.0000771 15.1670000 2
16215 16216 16218 16220 1 180.0000771 15.1670000 2
16217 16216 16218 16219 1 180.0000771 15.1670000 2
16217 16216 16218 16220 1 180.0000771 15.1670000 2
16216 16218 16220 16221 1 180.0000771 15.1670000 2
16216 16218 16220 16222 1 180.0000771 15.1670000 2
16219 16218 16220 16221 1 180.0000771 15.1670000 2
16219 16218 16220 16222 1 180.0000771 15.1670000 2
16216 16220 16218 16219 4 180.0000771 4.6024000 2
16218 16220 16222 16223 1 180.0000771 15.1670000 2
16218 16220 16222 16224 1 180.0000771 15.1670000 2
16221 16220 16222 16223 1 180.0000771 15.1670000 2
16221 16220 16222 16224 1 180.0000771 15.1670000 2
16218 16222 16220 16221 4 180.0000771 4.6024000 2
16215 16222 16224 16225 4 180.0000771 4.6024000 2
16220 16222 16224 16225 1 180.0000771 15.1670000 2
16223 16222 16224 16225 1 180.0000771 15.1670000 2
16215 16224 16222 16220 1 180.0000771 15.1670000 2
16215 16224 16222 16223 1 180.0000771 15.1670000 2
16220 16224 16222 16223 4 180.0000771 4.6024000 2
16228 16229 16230 16231 1 180.0000771 15.1670000 2
16228 16229 16230 16232 1 180.0000771 15.1670000 2
16231 16229 16230 16232 4 180.0000771 4.6024000 2
16228 16229 16238 16230 4 180.0000771 4.6024000 2
16228 16229 16238 16236 1 180.0000771 15.1670000 2
16228 16229 16238 16239 1 180.0000771 15.1670000 2
16230 16229 16238 16236 1 180.0000771 15.1670000 2
16230 16229 16238 16239 1 180.0000771 15.1670000 2
16231 16230 16229 16238 1 180.0000771 15.1670000 2
16232 16230 16229 16238 1 180.0000771 15.1670000 2
16229 16230 16232 16233 1 180.0000771 15.1670000 2
16229 16230 16232 16234 1 180.0000771 15.1670000 2
16231 16230 16232 16233 1 180.0000771 15.1670000 2
16231 16230 16232 16234 1 180.0000771 15.1670000 2
16230 16232 16234 16235 1 180.0000771 15.1670000 2
16230 16232 16234 16236 1 180.0000771 15.1670000 2
16233 16232 16234 16235 1 180.0000771 15.1670000 2
16233 16232 16234 16236 1 180.0000771 15.1670000 2
16230 16234 16232 16233 4 180.0000771 4.6024000 2
16232 16234 16236 16237 1 180.0000771 15.1670000 2
16232 16234 16236 16238 1 180.0000771 15.1670000 2
16235 16234 16236 16237 1 180.0000771 15.1670000 2
16235 16234 16236 16238 1 180.0000771 15.1670000 2
16232 16236 16234 16235 4 180.0000771 4.6024000 2
16229 16236 16238 16239 4 180.0000771 4.6024000 2
16234 16236 16238 16239 1 180.0000771 15.1670000 2
16237 16236 16238 16239 1 180.0000771 15.1670000 2
16229 16238 16236 16234 1 180.0000771 15.1670000 2
16229 16238 16236 16237 1 180.0000771 15.1670000 2
16234 16238 16236 16237 4 180.0000771 4.6024000 2
16242 16243 16244 16245 1 180.0000771 15.1670000 2
16242 16243 16244 16246 1 180.0000771 15.1670000 2
16245 16243 16244 16246 4 180.0000771 4.6024000 2
16242 16243 16252 16244 4 180.0000771 4.6024000 2
16242 16243 16252 16250 1 180.0000771 15.1670000 2
16242 16243 16252 16253 1 180.0000771 15.1670000 2
16244 16243 16252 16250 1 180.0000771 15.1670000 2
16244 16243 16252 16253 1 180.0000771 15.1670000 2
16245 16244 16243 16252 1 180.0000771 15.1670000 2
16246 16244 16243 16252 1 180.0000771 15.1670000 2
16243 16244 16246 16247 1 180.0000771 15.1670000 2
16243 16244 16246 16248 1 180.0000771 15.1670000 2
16245 16244 16246 16247 1 180.0000771 15.1670000 2
16245 16244 16246 16248 1 180.0000771 15.1670000 2
16244 16246 16248 16249 1 180.0000771 15.1670000 2
16244 16246 16248 16250 1 180.0000771 15.1670000 2
16247 16246 16248 16249 1 180.0000771 15.1670000 2
16247 16246 16248 16250 1 180.0000771 15.1670000 2
16244 16248 16246 16247 4 180.0000771 4.6024000 2
16246 16248 16250 16251 1 180.0000771 15.1670000 2
16246 16248 16250 16252 1 180.0000771 15.1670000 2
16249 16248 16250 16251 1 180.0000771 15.1670000 2
16249 16248 16250 16252 1 180.0000771 15.1670000 2
16246 16250 16248 16249 4 180.0000771 4.6024000 2
16243 16250 16252 16253 4 180.0000771 4.6024000 2
16248 16250 16252 16253 1 180.0000771 15.1670000 2
16251 16250 16252 16253 1 180.0000771 15.1670000 2
16243 16252 16250 16248 1 180.0000771 15.1670000 2
16243 16252 16250 16251 1 180.0000771 15.1670000 2
16248 16252 16250 16251 4 180.0000771 4.6024000 2
16256 16257 16258 16259 1 180.0000771 15.1670000 2
16256 16257 16258 16260 1 180.0000771 15.1670000 2
16259 16257 16258 16260 4 180.0000771 4.6024000 2
16256 16257 16266 16258 4 180.0000771 4.6024000 2
16256 16257 16266 16264 1 180.0000771 15.1670000 2
16256 16257 16266 16267 1 180.0000771 15.1670000 2
16258 16257 16266 16264 1 180.0000771 15.1670000 2
16258 16257 16266 16267 1 180.0000771 15.1670000 2
16259 16258 16257 16266 1 180.0000771 15.1670000 2
16260 16258 16257 16266 1 180.0000771 15.1670000 2
16257 16258 16260 16261 1 180.0000771 15.1670000 2
16257 16258 16260 16262 1 180.0000771 15.1670000 2
16259 16258 16260 16261 1 180.0000771 15.1670000 2
16259 16258 16260 16262 1 180.0000771 15.1670000 2
16258 16260 16262 16263 1 180.0000771 15.1670000 2
16258 16260 16262 16264 1 180.0000771 15.1670000 2
16261 16260 16262 16263 1 180.0000771 15.1670000 2
16261 16260 16262 16264 1 180.0000771 15.1670000 2
16258 16262 16260 16261 4 180.0000771 4.6024000 2
16260 16262 16264 16265 1 180.0000771 15.1670000 2
16260 16262 16264 16266 1 180.0000771 15.1670000 2
16263 16262 16264 16265 1 180.0000771 15.1670000 2
16263 16262 16264 16266 1 180.0000771 15.1670000 2
16260 16264 16262 16263 4 180.0000771 4.6024000 2
16257 16264 16266 16267 4 180.0000771 4.6024000 2
16262 16264 16266 16267 1 180.0000771 15.1670000 2
16265 16264 16266 16267 1 180.0000771 15.1670000 2
16257 16266 16264 16262 1 180.0000771 15.1670000 2
16257 16266 16264 16265 1 180.0000771 15.1670000 2
16262 16266 16264 16265 4 180.0000771 4.6024000 2
16270 16271 16272 16273 1 180.0000771 15.1670000 2
16270 16271 16272 16274 1 180.0000771 15.1670000 2
16273 16271 16272 16274 4 180.0000771 4.6024000 2
16270 16271 16280 16272 4 180.0000771 4.6024000 2
16270 16271 16280 16278 1 180.0000771 15.1670000 2
16270 16271 16280 16281 1 180.0000771 15.1670000 2
16272 16271 16280 16278 1 180.0000771 15.1670000 2
16272 16271 16280 16281 1 180.0000771 15.1670000 2
16273 16272 16271 16280 1 180.0000771 15.1670000 2
16274 16272 16271 16280 1 180.0000771 15.1670000 2
16271 16272 16274 16275 1 180.0000771 15.1670000 2
16271 16272 16274 16276 1 180.0000771 15.1670000 2
16273 16272 16274 16275 1 180.0000771 15.1670000 2
16273 16272 16274 16276 1 180.0000771 15.1670000 2
16272 16274 16276 16277 1 180.0000771 15.1670000 2
16272 16274 16276 16278 1 180.0000771 15.1670000 2
16275 16274 16276 16277 1 180.0000771 15.1670000 2
16275 16274 16276 16278 1 180.0000771 15.1670000 2
16272 16276 16274 16275 4 180.0000771 4.6024000 2
16274 16276 16278 16279 1 180.0000771 15.1670000 2
16274 16276 16278 16280 1 180.0000771 15.1670000 2
16277 16276 16278 16279 1 180.0000771 15.1670000 2
16277 16276 16278 16280 1 180.0000771 15.1670000 2
16274 16278 16276 16277 4 180.0000771 4.6024000 2
16271 16278 16280 16281 4 180.0000771 4.6024000 2
16276 16278 16280 16281 1 180.0000771 15.1670000 2
16279 16278 16280 16281 1 180.0000771 15.1670000 2
16271 16280 16278 16276 1 180.0000771 15.1670000 2
16271 16280 16278 16279 1 180.0000771 15.1670000 2
16276 16280 16278 16279 4 180.0000771 4.6024000 2
16284 16285 16286 16287 1 180.0000771 15.1670000 2
16284 16285 16286 16288 1 180.0000771 15.1670000 2
16287 16285 16286 16288 4 180.0000771 4.6024000 2
16284 16285 16294 16286 4 180.0000771 4.6024000 2
16284 16285 16294 16292 1 180.0000771 15.1670000 2
16284 16285 16294 16295 1 180.0000771 15.1670000 2
16286 16285 16294 16292 1 180.0000771 15.1670000 2
16286 16285 16294 16295 1 180.0000771 15.1670000 2
16287 16286 16285 16294 1 180.0000771 15.1670000 2
16288 16286 16285 16294 1 180.0000771 15.1670000 2
16285 16286 16288 16289 1 180.0000771 15.1670000 2
16285 16286 16288 16290 1 180.0000771 15.1670000 2
16287 16286 16288 16289 1 180.0000771 15.1670000 2
16287 16286 16288 16290 1 180.0000771 15.1670000 2
16286 16288 16290 16291 1 180.0000771 15.1670000 2
16286 16288 16290 16292 1 180.0000771 15.1670000 2
16289 16288 16290 16291 1 180.0000771 15.1670000 2
16289 16288 16290 16292 1 180.0000771 15.1670000 2
16286 16290 16288 16289 4 180.0000771 4.6024000 2
16288 16290 16292 16293 1 180.0000771 15.1670000 2
16288 16290 16292 16294 1 180.0000771 15.1670000 2
16291 16290 16292 16293 1 180.0000771 15.1670000 2
16291 16290 16292 16294 1 180.0000771 15.1670000 2
16288 16292 16290 16291 4 180.0000771 4.6024000 2
16285 16292 16294 16295 4 180.0000771 4.6024000 2
16290 16292 16294 16295 1 180.0000771 15.1670000 2
16293 16292 16294 16295 1 180.0000771 15.1670000 2
16285 16294 16292 16290 1 180.0000771 15.1670000 2
16285 16294 16292 16293 1 180.0000771 15.1670000 2
16290 16294 16292 16293 4 180.0000771 4.6024000 2
16298 16299 16300 16301 1 180.0000771 15.1670000 2
16298 16299 16300 16302 1 180.0000771 15.1670000 2
16301 16299 16300 16302 4 180.0000771 4.6024000 2
16298 16299 16308 16300 4 180.0000771 4.6024000 2
16298 16299 16308 16306 1 180.0000771 15.1670000 2
16298 16299 16308 16309 1 180.0000771 15.1670000 2
16300 16299 16308 16306 1 180.0000771 15.1670000 2
16300 16299 16308 16309 1 180.0000771 15.1670000 2
16301 16300 16299 16308 1 180.0000771 15.1670000 2
16302 16300 16299 16308 1 180.0000771 15.1670000 2
16299 16300 16302 16303 1 180.0000771 15.1670000 2
16299 16300 16302 16304 1 180.0000771 15.1670000 2
16301 16300 16302 16303 1 180.0000771 15.1670000 2
16301 16300 16302 16304 1 180.0000771 15.1670000 2
16300 16302 16304 16305 1 180.0000771 15.1670000 2
16300 16302 16304 16306 1 180.0000771 15.1670000 2
16303 16302 16304 16305 1 180.0000771 15.1670000 2
16303 16302 16304 16306 1 180.0000771 15.1670000 2
16300 16304 16302 16303 4 180.0000771 4.6024000 2
16302 16304 16306 16307 1 180.0000771 15.1670000 2
16302 16304 16306 16308 1 180.0000771 15.1670000 2
16305 16304 16306 16307 1 180.0000771 15.1670000 2
16305 16304 16306 16308 1 180.0000771 15.1670000 2
16302 16306 16304 16305 4 180.0000771 4.6024000 2
16299 16306 16308 16309 4 180.0000771 4.6024000 2
16304 16306 16308 16309 1 180.0000771 15.1670000 2
16307 16306 16308 16309 1 180.0000771 15.1670000 2
16299 16308 16306 16304 1 180.0000771 15.1670000 2
16299 16308 16306 16307 1 180.0000771 15.1670000 2
16304 16308 16306 16307 4 180.0000771 4.6024000 2
16312 16313 16314 16315 1 180.0000771 15.1670000 2
16312 16313 16314 16316 1 180.0000771 15.1670000 2
16315 16313 16314 16316 4 180.0000771 4.6024000 2
16312 16313 16322 16314 4 180.0000771 4.6024000 2
16312 16313 16322 16320 1 180.0000771 15.1670000 2
16312 16313 16322 16323 1 180.0000771 15.1670000 2
16314 16313 16322 16320 1 180.0000771 15.1670000 2
16314 16313 16322 16323 1 180.0000771 15.1670000 2
16315 16314 16313 16322 1 180.0000771 15.1670000 2
16316 16314 16313 16322 1 180.0000771 15.1670000 2
16313 16314 16316 16317 1 180.0000771 15.1670000 2
16313 16314 16316 16318 1 180.0000771 15.1670000 2
16315 16314 16316 16317 1 180.0000771 15.1670000 2
16315 16314 16316 16318 1 180.0000771 15.1670000 2
16314 16316 16318 16319 1 180.0000771 15.1670000 2
16314 16316 16318 16320 1 180.0000771 15.1670000 2
16317 16316 16318 16319 1 180.0000771 15.1670000 2
16317 16316 16318 16320 1 180.0000771 15.1670000 2
16314 16318 16316 16317 4 180.0000771 4.6024000 2
16316 16318 16320 16321 1 180.0000771 15.1670000 2
16316 16318 16320 16322 1 180.0000771 15.1670000 2
16319 16318 16320 16321 1 180.0000771 15.1670000 2
16319 16318 16320 16322 1 180.0000771 15.1670000 2
16316 16320 16318 16319 4 180.0000771 4.6024000 2
16313 16320 16322 16323 4 180.0000771 4.6024000 2
16318 16320 16322 16323 1 180.0000771 15.1670000 2
16321 16320 16322 16323 1 180.0000771 15.1670000 2
16313 16322 16320 16318 1 180.0000771 15.1670000 2
16313 16322 16320 16321 1 180.0000771 15.1670000 2
16318 16322 16320 16321 4 180.0000771 4.6024000 2
16326 16327 16328 16329 1 180.0000771 15.1670000 2
16326 16327 16328 16330 1 180.0000771 15.1670000 2
16329 16327 16328 16330 4 180.0000771 4.6024000 2
16326 16327 16336 16328 4 180.0000771 4.6024000 2
16326 16327 16336 16334 1 180.0000771 15.1670000 2
16326 16327 16336 16337 1 180.0000771 15.1670000 2
16328 16327 16336 16334 1 180.0000771 15.1670000 2
16328 16327 16336 16337 1 180.0000771 15.1670000 2
16329 16328 16327 16336 1 180.0000771 15.1670000 2
16330 16328 16327 16336 1 180.0000771 15.1670000 2
16327 16328 16330 16331 1 180.0000771 15.1670000 2
16327 16328 16330 16332 1 180.0000771 15.1670000 2
16329 16328 16330 16331 1 180.0000771 15.1670000 2
16329 16328 16330 16332 1 180.0000771 15.1670000 2
16328 16330 16332 16333 1 180.0000771 15.1670000 2
16328 16330 16332 16334 1 180.0000771 15.1670000 2
16331 16330 16332 16333 1 180.0000771 15.1670000 2
16331 16330 16332 16334 1 180.0000771 15.1670000 2
16328 16332 16330 16331 4 180.0000771 4.6024000 2
16330 16332 16334 16335 1 180.0000771 15.1670000 2
16330 16332 16334 16336 1 180.0000771 15.1670000 2
16333 16332 16334 16335 1 180.0000771 15.1670000 2
16333 16332 16334 16336 1 180.0000771 15.1670000 2
16330 16334 16332 16333 4 180.0000771 4.6024000 2
16327 16334 16336 16337 4 180.0000771 4.6024000 2
16332 16334 16336 16337 1 180.0000771 15.1670000 2
16335 16334 16336 16337 1 180.0000771 15.1670000 2
16327 16336 16334 16332 1 180.0000771 15.1670000 2
16327 16336 16334 16335 1 180.0000771 15.1670000 2
16332 16336 16334 16335 4 180.0000771 4.6024000 2
16340 16341 16342 16343 1 180.0000771 15.1670000 2
16340 16341 16342 16344 1 180.0000771 15.1670000 2
16343 16341 16342 16344 4 180.0000771 4.6024000 2
16340 16341 16350 16342 4 180.0000771 4.6024000 2
16340 16341 16350 16348 1 180.0000771 15.1670000 2
16340 16341 16350 16351 1 180.0000771 15.1670000 2
16342 16341 16350 16348 1 180.0000771 15.1670000 2
16342 16341 16350 16351 1 180.0000771 15.1670000 2
16343 16342 16341 16350 1 180.0000771 15.1670000 2
16344 16342 16341 16350 1 180.0000771 15.1670000 2
16341 16342 16344 16345 1 180.0000771 15.1670000 2
16341 16342 16344 16346 1 180.0000771 15.1670000 2
16343 16342 16344 16345 1 180.0000771 15.1670000 2
16343 16342 16344 16346 1 180.0000771 15.1670000 2
16342 16344 16346 16347 1 180.0000771 15.1670000 2
16342 16344 16346 16348 1 180.0000771 15.1670000 2
16345 16344 16346 16347 1 180.0000771 15.1670000 2
16345 16344 16346 16348 1 180.0000771 15.1670000 2
16342 16346 16344 16345 4 180.0000771 4.6024000 2
16344 16346 16348 16349 1 180.0000771 15.1670000 2
16344 16346 16348 16350 1 180.0000771 15.1670000 2
16347 16346 16348 16349 1 180.0000771 15.1670000 2
16347 16346 16348 16350 1 180.0000771 15.1670000 2
16344 16348 16346 16347 4 180.0000771 4.6024000 2
16341 16348 16350 16351 4 180.0000771 4.6024000 2
16346 16348 16350 16351 1 180.0000771 15.1670000 2
16349 16348 16350 16351 1 180.0000771 15.1670000 2
16341 16350 16348 16346 1 180.0000771 15.1670000 2
16341 16350 16348 16349 1 180.0000771 15.1670000 2
16346 16350 16348 16349 4 180.0000771 4.6024000 2
16354 16355 16356 16357 1 180.0000771 15.1670000 2
16354 16355 16356 16358 1 180.0000771 15.1670000 2
16357 16355 16356 16358 4 180.0000771 4.6024000 2
16354 16355 16364 16356 4 180.0000771 4.6024000 2
16354 16355 16364 16362 1 180.0000771 15.1670000 2
16354 16355 16364 16365 1 180.0000771 15.1670000 2
16356 16355 16364 16362 1 180.0000771 15.1670000 2
16356 16355 16364 16365 1 180.0000771 15.1670000 2
16357 16356 16355 16364 1 180.0000771 15.1670000 2
16358 16356 16355 16364 1 180.0000771 15.1670000 2
16355 16356 16358 16359 1 180.0000771 15.1670000 2
16355 16356 16358 16360 1 180.0000771 15.1670000 2
16357 16356 16358 16359 1 180.0000771 15.1670000 2
16357 16356 16358 16360 1 180.0000771 15.1670000 2
16356 16358 16360 16361 1 180.0000771 15.1670000 2
16356 16358 16360 16362 1 180.0000771 15.1670000 2
16359 16358 16360 16361 1 180.0000771 15.1670000 2
16359 16358 16360 16362 1 180.0000771 15.1670000 2
16356 16360 16358 16359 4 180.0000771 4.6024000 2
16358 16360 16362 16363 1 180.0000771 15.1670000 2
16358 16360 16362 16364 1 180.0000771 15.1670000 2
16361 16360 16362 16363 1 180.0000771 15.1670000 2
16361 16360 16362 16364 1 180.0000771 15.1670000 2
16358 16362 16360 16361 4 180.0000771 4.6024000 2
16355 16362 16364 16365 4 180.0000771 4.6024000 2
16360 16362 16364 16365 1 180.0000771 15.1670000 2
16363 16362 16364 16365 1 180.0000771 15.1670000 2
16355 16364 16362 16360 1 180.0000771 15.1670000 2
16355 16364 16362 16363 1 180.0000771 15.1670000 2
16360 16364 16362 16363 4 180.0000771 4.6024000 2
16368 16369 16370 16371 1 180.0000771 15.1670000 2
16368 16369 16370 16372 1 180.0000771 15.1670000 2
16371 16369 16370 16372 4 180.0000771 4.6024000 2
16368 16369 16378 16370 4 180.0000771 4.6024000 2
16368 16369 16378 16376 1 180.0000771 15.1670000 2
16368 16369 16378 16379 1 180.0000771 15.1670000 2
16370 16369 16378 16376 1 180.0000771 15.1670000 2
16370 16369 16378 16379 1 180.0000771 15.1670000 2
16371 16370 16369 16378 1 180.0000771 15.1670000 2
16372 16370 16369 16378 1 180.0000771 15.1670000 2
16369 16370 16372 16373 1 180.0000771 15.1670000 2
16369 16370 16372 16374 1 180.0000771 15.1670000 2
16371 16370 16372 16373 1 180.0000771 15.1670000 2
16371 16370 16372 16374 1 180.0000771 15.1670000 2
16370 16372 16374 16375 1 180.0000771 15.1670000 2
16370 16372 16374 16376 1 180.0000771 15.1670000 2
16373 16372 16374 16375 1 180.0000771 15.1670000 2
16373 16372 16374 16376 1 180.0000771 15.1670000 2
16370 16374 16372 16373 4 180.0000771 4.6024000 2
16372 16374 16376 16377 1 180.0000771 15.1670000 2
16372 16374 16376 16378 1 180.0000771 15.1670000 2
16375 16374 16376 16377 1 180.0000771 15.1670000 2
16375 16374 16376 16378 1 180.0000771 15.1670000 2
16372 16376 16374 16375 4 180.0000771 4.6024000 2
16369 16376 16378 16379 4 180.0000771 4.6024000 2
16374 16376 16378 16379 1 180.0000771 15.1670000 2
16377 16376 16378 16379 1 180.0000771 15.1670000 2
16369 16378 16376 16374 1 180.0000771 15.1670000 2
16369 16378 16376 16377 1 180.0000771 15.1670000 2
16374 16378 16376 16377 4 180.0000771 4.6024000 2
16382 16383 16384 16385 1 180.0000771 15.1670000 2
16382 16383 16384 16386 1 180.0000771 15.1670000 2
16385 16383 16384 16386 4 180.0000771 4.6024000 2
16382 16383 16392 16384 4 180.0000771 4.6024000 2
16382 16383 16392 16390 1 180.0000771 15.1670000 2
16382 16383 16392 16393 1 180.0000771 15.1670000 2
16384 16383 16392 16390 1 180.0000771 15.1670000 2
16384 16383 16392 16393 1 180.0000771 15.1670000 2
16385 16384 16383 16392 1 180.0000771 15.1670000 2
16386 16384 16383 16392 1 180.0000771 15.1670000 2
16383 16384 16386 16387 1 180.0000771 15.1670000 2
16383 16384 16386 16388 1 180.0000771 15.1670000 2
16385 16384 16386 16387 1 180.0000771 15.1670000 2
16385 16384 16386 16388 1 180.0000771 15.1670000 2
16384 16386 16388 16389 1 180.0000771 15.1670000 2
16384 16386 16388 16390 1 180.0000771 15.1670000 2
16387 16386 16388 16389 1 180.0000771 15.1670000 2
16387 16386 16388 16390 1 180.0000771 15.1670000 2
16384 16388 16386 16387 4 180.0000771 4.6024000 2
16386 16388 16390 16391 1 180.0000771 15.1670000 2
16386 16388 16390 16392 1 180.0000771 15.1670000 2
16389 16388 16390 16391 1 180.0000771 15.1670000 2
16389 16388 16390 16392 1 180.0000771 15.1670000 2
16386 16390 16388 16389 4 180.0000771 4.6024000 2
16383 16390 16392 16393 4 180.0000771 4.6024000 2
16388 16390 16392 16393 1 180.0000771 15.1670000 2
16391 16390 16392 16393 1 180.0000771 15.1670000 2
16383 16392 16390 16388 1 180.0000771 15.1670000 2
16383 16392 16390 16391 1 180.0000771 15.1670000 2
16388 16392 16390 16391 4 180.0000771 4.6024000 2
16396 16397 16398 16399 1 180.0000771 15.1670000 2
16396 16397 16398 16400 1 180.0000771 15.1670000 2
16399 16397 16398 16400 4 180.0000771 4.6024000 2
16396 16397 16406 16398 4 180.0000771 4.6024000 2
16396 16397 16406 16404 1 180.0000771 15.1670000 2
16396 16397 16406 16407 1 180.0000771 15.1670000 2
16398 16397 16406 16404 1 180.0000771 15.1670000 2
16398 16397 16406 16407 1 180.0000771 15.1670000 2
16399 16398 16397 16406 1 180.0000771 15.1670000 2
16400 16398 16397 16406 1 180.0000771 15.1670000 2
16397 16398 16400 16401 1 180.0000771 15.1670000 2
16397 16398 16400 16402 1 180.0000771 15.1670000 2
16399 16398 16400 16401 1 180.0000771 15.1670000 2
16399 16398 16400 16402 1 180.0000771 15.1670000 2
16398 16400 16402 16403 1 180.0000771 15.1670000 2
16398 16400 16402 16404 1 180.0000771 15.1670000 2
16401 16400 16402 16403 1 180.0000771 15.1670000 2
16401 16400 16402 16404 1 180.0000771 15.1670000 2
16398 16402 16400 16401 4 180.0000771 4.6024000 2
16400 16402 16404 16405 1 180.0000771 15.1670000 2
16400 16402 16404 16406 1 180.0000771 15.1670000 2
16403 16402 16404 16405 1 180.0000771 15.1670000 2
16403 16402 16404 16406 1 180.0000771 15.1670000 2
16400 16404 16402 16403 4 180.0000771 4.6024000 2
16397 16404 16406 16407 4 180.0000771 4.6024000 2
16402 16404 16406 16407 1 180.0000771 15.1670000 2
16405 16404 16406 16407 1 180.0000771 15.1670000 2
16397 16406 16404 16402 1 180.0000771 15.1670000 2
16397 16406 16404 16405 1 180.0000771 15.1670000 2
16402 16406 16404 16405 4 180.0000771 4.6024000 2
16410 16411 16412 16413 1 180.0000771 15.1670000 2
16410 16411 16412 16414 1 180.0000771 15.1670000 2
16413 16411 16412 16414 4 180.0000771 4.6024000 2
16410 16411 16420 16412 4 180.0000771 4.6024000 2
16410 16411 16420 16418 1 180.0000771 15.1670000 2
16410 16411 16420 16421 1 180.0000771 15.1670000 2
16412 16411 16420 16418 1 180.0000771 15.1670000 2
16412 16411 16420 16421 1 180.0000771 15.1670000 2
16413 16412 16411 16420 1 180.0000771 15.1670000 2
16414 16412 16411 16420 1 180.0000771 15.1670000 2
16411 16412 16414 16415 1 180.0000771 15.1670000 2
16411 16412 16414 16416 1 180.0000771 15.1670000 2
16413 16412 16414 16415 1 180.0000771 15.1670000 2
16413 16412 16414 16416 1 180.0000771 15.1670000 2
16412 16414 16416 16417 1 180.0000771 15.1670000 2
16412 16414 16416 16418 1 180.0000771 15.1670000 2
16415 16414 16416 16417 1 180.0000771 15.1670000 2
16415 16414 16416 16418 1 180.0000771 15.1670000 2
16412 16416 16414 16415 4 180.0000771 4.6024000 2
16414 16416 16418 16419 1 180.0000771 15.1670000 2
16414 16416 16418 16420 1 180.0000771 15.1670000 2
16417 16416 16418 16419 1 180.0000771 15.1670000 2
16417 16416 16418 16420 1 180.0000771 15.1670000 2
16414 16418 16416 16417 4 180.0000771 4.6024000 2
16411 16418 16420 16421 4 180.0000771 4.6024000 2
16416 16418 16420 16421 1 180.0000771 15.1670000 2
16419 16418 16420 16421 1 180.0000771 15.1670000 2
16411 16420 16418 16416 1 180.0000771 15.1670000 2
16411 16420 16418 16419 1 180.0000771 15.1670000 2
16416 16420 16418 16419 4 180.0000771 4.6024000 2
16424 16425 16426 16427 1 180.0000771 15.1670000 2
16424 16425 16426 16428 1 180.0000771 15.1670000 2
16427 16425 16426 16428 4 180.0000771 4.6024000 2
16424 16425 16434 16426 4 180.0000771 4.6024000 2
16424 16425 16434 16432 1 180.0000771 15.1670000 2
16424 16425 16434 16435 1 180.0000771 15.1670000 2
16426 16425 16434 16432 1 180.0000771 15.1670000 2
16426 16425 16434 16435 1 180.0000771 15.1670000 2
16427 16426 16425 16434 1 180.0000771 15.1670000 2
16428 16426 16425 16434 1 180.0000771 15.1670000 2
16425 16426 16428 16429 1 180.0000771 15.1670000 2
16425 16426 16428 16430 1 180.0000771 15.1670000 2
16427 16426 16428 16429 1 180.0000771 15.1670000 2
16427 16426 16428 16430 1 180.0000771 15.1670000 2
16426 16428 16430 16431 1 180.0000771 15.1670000 2
16426 16428 16430 16432 1 180.0000771 15.1670000 2
16429 16428 16430 16431 1 180.0000771 15.1670000 2
16429 16428 16430 16432 1 180.0000771 15.1670000 2
16426 16430 16428 16429 4 180.0000771 4.6024000 2
16428 16430 16432 16433 1 180.0000771 15.1670000 2
16428 16430 16432 16434 1 180.0000771 15.1670000 2
16431 16430 16432 16433 1 180.0000771 15.1670000 2
16431 16430 16432 16434 1 180.0000771 15.1670000 2
16428 16432 16430 16431 4 180.0000771 4.6024000 2
16425 16432 16434 16435 4 180.0000771 4.6024000 2
16430 16432 16434 16435 1 180.0000771 15.1670000 2
16433 16432 16434 16435 1 180.0000771 15.1670000 2
16425 16434 16432 16430 1 180.0000771 15.1670000 2
16425 16434 16432 16433 1 180.0000771 15.1670000 2
16430 16434 16432 16433 4 180.0000771 4.6024000 2
16438 16439 16440 16441 1 180.0000771 15.1670000 2
16438 16439 16440 16442 1 180.0000771 15.1670000 2
16441 16439 16440 16442 4 180.0000771 4.6024000 2
16438 16439 16448 16440 4 180.0000771 4.6024000 2
16438 16439 16448 16446 1 180.0000771 15.1670000 2
16438 16439 16448 16449 1 180.0000771 15.1670000 2
16440 16439 16448 16446 1 180.0000771 15.1670000 2
16440 16439 16448 16449 1 180.0000771 15.1670000 2
16441 16440 16439 16448 1 180.0000771 15.1670000 2
16442 16440 16439 16448 1 180.0000771 15.1670000 2
16439 16440 16442 16443 1 180.0000771 15.1670000 2
16439 16440 16442 16444 1 180.0000771 15.1670000 2
16441 16440 16442 16443 1 180.0000771 15.1670000 2
16441 16440 16442 16444 1 180.0000771 15.1670000 2
16440 16442 16444 16445 1 180.0000771 15.1670000 2
16440 16442 16444 16446 1 180.0000771 15.1670000 2
16443 16442 16444 16445 1 180.0000771 15.1670000 2
16443 16442 16444 16446 1 180.0000771 15.1670000 2
16440 16444 16442 16443 4 180.0000771 4.6024000 2
16442 16444 16446 16447 1 180.0000771 15.1670000 2
16442 16444 16446 16448 1 180.0000771 15.1670000 2
16445 16444 16446 16447 1 180.0000771 15.1670000 2
16445 16444 16446 16448 1 180.0000771 15.1670000 2
16442 16446 16444 16445 4 180.0000771 4.6024000 2
16439 16446 16448 16449 4 180.0000771 4.6024000 2
16444 16446 16448 16449 1 180.0000771 15.1670000 2
16447 16446 16448 16449 1 180.0000771 15.1670000 2
16439 16448 16446 16444 1 180.0000771 15.1670000 2
16439 16448 16446 16447 1 180.0000771 15.1670000 2
16444 16448 16446 16447 4 180.0000771 4.6024000 2
16452 16453 16454 16455 1 180.0000771 15.1670000 2
16452 16453 16454 16456 1 180.0000771 15.1670000 2
16455 16453 16454 16456 4 180.0000771 4.6024000 2
16452 16453 16462 16454 4 180.0000771 4.6024000 2
16452 16453 16462 16460 1 180.0000771 15.1670000 2
16452 16453 16462 16463 1 180.0000771 15.1670000 2
16454 16453 16462 16460 1 180.0000771 15.1670000 2
16454 16453 16462 16463 1 180.0000771 15.1670000 2
16455 16454 16453 16462 1 180.0000771 15.1670000 2
16456 16454 16453 16462 1 180.0000771 15.1670000 2
16453 16454 16456 16457 1 180.0000771 15.1670000 2
16453 16454 16456 16458 1 180.0000771 15.1670000 2
16455 16454 16456 16457 1 180.0000771 15.1670000 2
16455 16454 16456 16458 1 180.0000771 15.1670000 2
16454 16456 16458 16459 1 180.0000771 15.1670000 2
16454 16456 16458 16460 1 180.0000771 15.1670000 2
16457 16456 16458 16459 1 180.0000771 15.1670000 2
16457 16456 16458 16460 1 180.0000771 15.1670000 2
16454 16458 16456 16457 4 180.0000771 4.6024000 2
16456 16458 16460 16461 1 180.0000771 15.1670000 2
16456 16458 16460 16462 1 180.0000771 15.1670000 2
16459 16458 16460 16461 1 180.0000771 15.1670000 2
16459 16458 16460 16462 1 180.0000771 15.1670000 2
16456 16460 16458 16459 4 180.0000771 4.6024000 2
16453 16460 16462 16463 4 180.0000771 4.6024000 2
16458 16460 16462 16463 1 180.0000771 15.1670000 2
16461 16460 16462 16463 1 180.0000771 15.1670000 2
16453 16462 16460 16458 1 180.0000771 15.1670000 2
16453 16462 16460 16461 1 180.0000771 15.1670000 2
16458 16462 16460 16461 4 180.0000771 4.6024000 2
16466 16467 16468 16469 1 180.0000771 15.1670000 2
16466 16467 16468 16470 1 180.0000771 15.1670000 2
16469 16467 16468 16470 4 180.0000771 4.6024000 2
16466 16467 16476 16468 4 180.0000771 4.6024000 2
16466 16467 16476 16474 1 180.0000771 15.1670000 2
16466 16467 16476 16477 1 180.0000771 15.1670000 2
16468 16467 16476 16474 1 180.0000771 15.1670000 2
16468 16467 16476 16477 1 180.0000771 15.1670000 2
16469 16468 16467 16476 1 180.0000771 15.1670000 2
16470 16468 16467 16476 1 180.0000771 15.1670000 2
16467 16468 16470 16471 1 180.0000771 15.1670000 2
16467 16468 16470 16472 1 180.0000771 15.1670000 2
16469 16468 16470 16471 1 180.0000771 15.1670000 2
16469 16468 16470 16472 1 180.0000771 15.1670000 2
16468 16470 16472 16473 1 180.0000771 15.1670000 2
16468 16470 16472 16474 1 180.0000771 15.1670000 2
16471 16470 16472 16473 1 180.0000771 15.1670000 2
16471 16470 16472 16474 1 180.0000771 15.1670000 2
16468 16472 16470 16471 4 180.0000771 4.6024000 2
16470 16472 16474 16475 1 180.0000771 15.1670000 2
16470 16472 16474 16476 1 180.0000771 15.1670000 2
16473 16472 16474 16475 1 180.0000771 15.1670000 2
16473 16472 16474 16476 1 180.0000771 15.1670000 2
16470 16474 16472 16473 4 180.0000771 4.6024000 2
16467 16474 16476 16477 4 180.0000771 4.6024000 2
16472 16474 16476 16477 1 180.0000771 15.1670000 2
16475 16474 16476 16477 1 180.0000771 15.1670000 2
16467 16476 16474 16472 1 180.0000771 15.1670000 2
16467 16476 16474 16475 1 180.0000771 15.1670000 2
16472 16476 16474 16475 4 180.0000771 4.6024000 2
16480 16481 16482 16483 1 180.0000771 15.1670000 2
16480 16481 16482 16484 1 180.0000771 15.1670000 2
16483 16481 16482 16484 4 180.0000771 4.6024000 2
16480 16481 16490 16482 4 180.0000771 4.6024000 2
16480 16481 16490 16488 1 180.0000771 15.1670000 2
16480 16481 16490 16491 1 180.0000771 15.1670000 2
16482 16481 16490 16488 1 180.0000771 15.1670000 2
16482 16481 16490 16491 1 180.0000771 15.1670000 2
16483 16482 16481 16490 1 180.0000771 15.1670000 2
16484 16482 16481 16490 1 180.0000771 15.1670000 2
16481 16482 16484 16485 1 180.0000771 15.1670000 2
16481 16482 16484 16486 1 180.0000771 15.1670000 2
16483 16482 16484 16485 1 180.0000771 15.1670000 2
16483 16482 16484 16486 1 180.0000771 15.1670000 2
16482 16484 16486 16487 1 180.0000771 15.1670000 2
16482 16484 16486 16488 1 180.0000771 15.1670000 2
16485 16484 16486 16487 1 180.0000771 15.1670000 2
16485 16484 16486 16488 1 180.0000771 15.1670000 2
16482 16486 16484 16485 4 180.0000771 4.6024000 2
16484 16486 16488 16489 1 180.0000771 15.1670000 2
16484 16486 16488 16490 1 180.0000771 15.1670000 2
16487 16486 16488 16489 1 180.0000771 15.1670000 2
16487 16486 16488 16490 1 180.0000771 15.1670000 2
16484 16488 16486 16487 4 180.0000771 4.6024000 2
16481 16488 16490 16491 4 180.0000771 4.6024000 2
16486 16488 16490 16491 1 180.0000771 15.1670000 2
16489 16488 16490 16491 1 180.0000771 15.1670000 2
16481 16490 16488 16486 1 180.0000771 15.1670000 2
16481 16490 16488 16489 1 180.0000771 15.1670000 2
16486 16490 16488 16489 4 180.0000771 4.6024000 2
16494 16495 16496 16497 1 180.0000771 15.1670000 2
16494 16495 16496 16498 1 180.0000771 15.1670000 2
16497 16495 16496 16498 4 180.0000771 4.6024000 2
16494 16495 16504 16496 4 180.0000771 4.6024000 2
16494 16495 16504 16502 1 180.0000771 15.1670000 2
16494 16495 16504 16505 1 180.0000771 15.1670000 2
16496 16495 16504 16502 1 180.0000771 15.1670000 2
16496 16495 16504 16505 1 180.0000771 15.1670000 2
16497 16496 16495 16504 1 180.0000771 15.1670000 2
16498 16496 16495 16504 1 180.0000771 15.1670000 2
16495 16496 16498 16499 1 180.0000771 15.1670000 2
16495 16496 16498 16500 1 180.0000771 15.1670000 2
16497 16496 16498 16499 1 180.0000771 15.1670000 2
16497 16496 16498 16500 1 180.0000771 15.1670000 2
16496 16498 16500 16501 1 180.0000771 15.1670000 2
16496 16498 16500 16502 1 180.0000771 15.1670000 2
16499 16498 16500 16501 1 180.0000771 15.1670000 2
16499 16498 16500 16502 1 180.0000771 15.1670000 2
16496 16500 16498 16499 4 180.0000771 4.6024000 2
16498 16500 16502 16503 1 180.0000771 15.1670000 2
16498 16500 16502 16504 1 180.0000771 15.1670000 2
16501 16500 16502 16503 1 180.0000771 15.1670000 2
16501 16500 16502 16504 1 180.0000771 15.1670000 2
16498 16502 16500 16501 4 180.0000771 4.6024000 2
16495 16502 16504 16505 4 180.0000771 4.6024000 2
16500 16502 16504 16505 1 180.0000771 15.1670000 2
16503 16502 16504 16505 1 180.0000771 15.1670000 2
16495 16504 16502 16500 1 180.0000771 15.1670000 2
16495 16504 16502 16503 1 180.0000771 15.1670000 2
16500 16504 16502 16503 4 180.0000771 4.6024000 2
16508 16509 16510 16511 1 180.0000771 15.1670000 2
16508 16509 16510 16512 1 180.0000771 15.1670000 2
16511 16509 16510 16512 4 180.0000771 4.6024000 2
16508 16509 16518 16510 4 180.0000771 4.6024000 2
16508 16509 16518 16516 1 180.0000771 15.1670000 2
16508 16509 16518 16519 1 180.0000771 15.1670000 2
16510 16509 16518 16516 1 180.0000771 15.1670000 2
16510 16509 16518 16519 1 180.0000771 15.1670000 2
16511 16510 16509 16518 1 180.0000771 15.1670000 2
16512 16510 16509 16518 1 180.0000771 15.1670000 2
16509 16510 16512 16513 1 180.0000771 15.1670000 2
16509 16510 16512 16514 1 180.0000771 15.1670000 2
16511 16510 16512 16513 1 180.0000771 15.1670000 2
16511 16510 16512 16514 1 180.0000771 15.1670000 2
16510 16512 16514 16515 1 180.0000771 15.1670000 2
16510 16512 16514 16516 1 180.0000771 15.1670000 2
16513 16512 16514 16515 1 180.0000771 15.1670000 2
16513 16512 16514 16516 1 180.0000771 15.1670000 2
16510 16514 16512 16513 4 180.0000771 4.6024000 2
16512 16514 16516 16517 1 180.0000771 15.1670000 2
16512 16514 16516 16518 1 180.0000771 15.1670000 2
16515 16514 16516 16517 1 180.0000771 15.1670000 2
16515 16514 16516 16518 1 180.0000771 15.1670000 2
16512 16516 16514 16515 4 180.0000771 4.6024000 2
16509 16516 16518 16519 4 180.0000771 4.6024000 2
16514 16516 16518 16519 1 180.0000771 15.1670000 2
16517 16516 16518 16519 1 180.0000771 15.1670000 2
16509 16518 16516 16514 1 180.0000771 15.1670000 2
16509 16518 16516 16517 1 180.0000771 15.1670000 2
16514 16518 16516 16517 4 180.0000771 4.6024000 2
16522 16523 16524 16525 1 180.0000771 15.1670000 2
16522 16523 16524 16526 1 180.0000771 15.1670000 2
16525 16523 16524 16526 4 180.0000771 4.6024000 2
16522 16523 16532 16524 4 180.0000771 4.6024000 2
16522 16523 16532 16530 1 180.0000771 15.1670000 2
16522 16523 16532 16533 1 180.0000771 15.1670000 2
16524 16523 16532 16530 1 180.0000771 15.1670000 2
16524 16523 16532 16533 1 180.0000771 15.1670000 2
16525 16524 16523 16532 1 180.0000771 15.1670000 2
16526 16524 16523 16532 1 180.0000771 15.1670000 2
16523 16524 16526 16527 1 180.0000771 15.1670000 2
16523 16524 16526 16528 1 180.0000771 15.1670000 2
16525 16524 16526 16527 1 180.0000771 15.1670000 2
16525 16524 16526 16528 1 180.0000771 15.1670000 2
16524 16526 16528 16529 1 180.0000771 15.1670000 2
16524 16526 16528 16530 1 180.0000771 15.1670000 2
16527 16526 16528 16529 1 180.0000771 15.1670000 2
16527 16526 16528 16530 1 180.0000771 15.1670000 2
16524 16528 16526 16527 4 180.0000771 4.6024000 2
16526 16528 16530 16531 1 180.0000771 15.1670000 2
16526 16528 16530 16532 1 180.0000771 15.1670000 2
16529 16528 16530 16531 1 180.0000771 15.1670000 2
16529 16528 16530 16532 1 180.0000771 15.1670000 2
16526 16530 16528 16529 4 180.0000771 4.6024000 2
16523 16530 16532 16533 4 180.0000771 4.6024000 2
16528 16530 16532 16533 1 180.0000771 15.1670000 2
16531 16530 16532 16533 1 180.0000771 15.1670000 2
16523 16532 16530 16528 1 180.0000771 15.1670000 2
16523 16532 16530 16531 1 180.0000771 15.1670000 2
16528 16532 16530 16531 4 180.0000771 4.6024000 2
16536 16537 16538 16539 1 180.0000771 15.1670000 2
16536 16537 16538 16540 1 180.0000771 15.1670000 2
16539 16537 16538 16540 4 180.0000771 4.6024000 2
16536 16537 16546 16538 4 180.0000771 4.6024000 2
16536 16537 16546 16544 1 180.0000771 15.1670000 2
16536 16537 16546 16547 1 180.0000771 15.1670000 2
16538 16537 16546 16544 1 180.0000771 15.1670000 2
16538 16537 16546 16547 1 180.0000771 15.1670000 2
16539 16538 16537 16546 1 180.0000771 15.1670000 2
16540 16538 16537 16546 1 180.0000771 15.1670000 2
16537 16538 16540 16541 1 180.0000771 15.1670000 2
16537 16538 16540 16542 1 180.0000771 15.1670000 2
16539 16538 16540 16541 1 180.0000771 15.1670000 2
16539 16538 16540 16542 1 180.0000771 15.1670000 2
16538 16540 16542 16543 1 180.0000771 15.1670000 2
16538 16540 16542 16544 1 180.0000771 15.1670000 2
16541 16540 16542 16543 1 180.0000771 15.1670000 2
16541 16540 16542 16544 1 180.0000771 15.1670000 2
16538 16542 16540 16541 4 180.0000771 4.6024000 2
16540 16542 16544 16545 1 180.0000771 15.1670000 2
16540 16542 16544 16546 1 180.0000771 15.1670000 2
16543 16542 16544 16545 1 180.0000771 15.1670000 2
16543 16542 16544 16546 1 180.0000771 15.1670000 2
16540 16544 16542 16543 4 180.0000771 4.6024000 2
16537 16544 16546 16547 4 180.0000771 4.6024000 2
16542 16544 16546 16547 1 180.0000771 15.1670000 2
16545 16544 16546 16547 1 180.0000771 15.1670000 2
16537 16546 16544 16542 1 180.0000771 15.1670000 2
16537 16546 16544 16545 1 180.0000771 15.1670000 2
16542 16546 16544 16545 4 180.0000771 4.6024000 2
16550 16551 16552 16553 1 180.0000771 15.1670000 2
16550 16551 16552 16554 1 180.0000771 15.1670000 2
16553 16551 16552 16554 4 180.0000771 4.6024000 2
16550 16551 16560 16552 4 180.0000771 4.6024000 2
16550 16551 16560 16558 1 180.0000771 15.1670000 2
16550 16551 16560 16561 1 180.0000771 15.1670000 2
16552 16551 16560 16558 1 180.0000771 15.1670000 2
16552 16551 16560 16561 1 180.0000771 15.1670000 2
16553 16552 16551 16560 1 180.0000771 15.1670000 2
16554 16552 16551 16560 1 180.0000771 15.1670000 2
16551 16552 16554 16555 1 180.0000771 15.1670000 2
16551 16552 16554 16556 1 180.0000771 15.1670000 2
16553 16552 16554 16555 1 180.0000771 15.1670000 2
16553 16552 16554 16556 1 180.0000771 15.1670000 2
16552 16554 16556 16557 1 180.0000771 15.1670000 2
16552 16554 16556 16558 1 180.0000771 15.1670000 2
16555 16554 16556 16557 1 180.0000771 15.1670000 2
16555 16554 16556 16558 1 180.0000771 15.1670000 2
16552 16556 16554 16555 4 180.0000771 4.6024000 2
16554 16556 16558 16559 1 180.0000771 15.1670000 2
16554 16556 16558 16560 1 180.0000771 15.1670000 2
16557 16556 16558 16559 1 180.0000771 15.1670000 2
16557 16556 16558 16560 1 180.0000771 15.1670000 2
16554 16558 16556 16557 4 180.0000771 4.6024000 2
16551 16558 16560 16561 4 180.0000771 4.6024000 2
16556 16558 16560 16561 1 180.0000771 15.1670000 2
16559 16558 16560 16561 1 180.0000771 15.1670000 2
16551 16560 16558 16556 1 180.0000771 15.1670000 2
16551 16560 16558 16559 1 180.0000771 15.1670000 2
16556 16560 16558 16559 4 180.0000771 4.6024000 2
16564 16565 16566 16567 1 180.0000771 15.1670000 2
16564 16565 16566 16568 1 180.0000771 15.1670000 2
16567 16565 16566 16568 4 180.0000771 4.6024000 2
16564 16565 16574 16566 4 180.0000771 4.6024000 2
16564 16565 16574 16572 1 180.0000771 15.1670000 2
16564 16565 16574 16575 1 180.0000771 15.1670000 2
16566 16565 16574 16572 1 180.0000771 15.1670000 2
16566 16565 16574 16575 1 180.0000771 15.1670000 2
16567 16566 16565 16574 1 180.0000771 15.1670000 2
16568 16566 16565 16574 1 180.0000771 15.1670000 2
16565 16566 16568 16569 1 180.0000771 15.1670000 2
16565 16566 16568 16570 1 180.0000771 15.1670000 2
16567 16566 16568 16569 1 180.0000771 15.1670000 2
16567 16566 16568 16570 1 180.0000771 15.1670000 2
16566 16568 16570 16571 1 180.0000771 15.1670000 2
16566 16568 16570 16572 1 180.0000771 15.1670000 2
16569 16568 16570 16571 1 180.0000771 15.1670000 2
16569 16568 16570 16572 1 180.0000771 15.1670000 2
16566 16570 16568 16569 4 180.0000771 4.6024000 2
16568 16570 16572 16573 1 180.0000771 15.1670000 2
16568 16570 16572 16574 1 180.0000771 15.1670000 2
16571 16570 16572 16573 1 180.0000771 15.1670000 2
16571 16570 16572 16574 1 180.0000771 15.1670000 2
16568 16572 16570 16571 4 180.0000771 4.6024000 2
16565 16572 16574 16575 4 180.0000771 4.6024000 2
16570 16572 16574 16575 1 180.0000771 15.1670000 2
16573 16572 16574 16575 1 180.0000771 15.1670000 2
16565 16574 16572 16570 1 180.0000771 15.1670000 2
16565 16574 16572 16573 1 180.0000771 15.1670000 2
16570 16574 16572 16573 4 180.0000771 4.6024000 2
16578 16579 16580 16581 1 180.0000771 15.1670000 2
16578 16579 16580 16582 1 180.0000771 15.1670000 2
16581 16579 16580 16582 4 180.0000771 4.6024000 2
16578 16579 16588 16580 4 180.0000771 4.6024000 2
16578 16579 16588 16586 1 180.0000771 15.1670000 2
16578 16579 16588 16589 1 180.0000771 15.1670000 2
16580 16579 16588 16586 1 180.0000771 15.1670000 2
16580 16579 16588 16589 1 180.0000771 15.1670000 2
16581 16580 16579 16588 1 180.0000771 15.1670000 2
16582 16580 16579 16588 1 180.0000771 15.1670000 2
16579 16580 16582 16583 1 180.0000771 15.1670000 2
16579 16580 16582 16584 1 180.0000771 15.1670000 2
16581 16580 16582 16583 1 180.0000771 15.1670000 2
16581 16580 16582 16584 1 180.0000771 15.1670000 2
16580 16582 16584 16585 1 180.0000771 15.1670000 2
16580 16582 16584 16586 1 180.0000771 15.1670000 2
16583 16582 16584 16585 1 180.0000771 15.1670000 2
16583 16582 16584 16586 1 180.0000771 15.1670000 2
16580 16584 16582 16583 4 180.0000771 4.6024000 2
16582 16584 16586 16587 1 180.0000771 15.1670000 2
16582 16584 16586 16588 1 180.0000771 15.1670000 2
16585 16584 16586 16587 1 180.0000771 15.1670000 2
16585 16584 16586 16588 1 180.0000771 15.1670000 2
16582 16586 16584 16585 4 180.0000771 4.6024000 2
16579 16586 16588 16589 4 180.0000771 4.6024000 2
16584 16586 16588 16589 1 180.0000771 15.1670000 2
16587 16586 16588 16589 1 180.0000771 15.1670000 2
16579 16588 16586 16584 1 180.0000771 15.1670000 2
16579 16588 16586 16587 1 180.0000771 15.1670000 2
16584 16588 16586 16587 4 180.0000771 4.6024000 2
16592 16593 16594 16595 1 180.0000771 15.1670000 2
16592 16593 16594 16596 1 180.0000771 15.1670000 2
16595 16593 16594 16596 4 180.0000771 4.6024000 2
16592 16593 16602 16594 4 180.0000771 4.6024000 2
16592 16593 16602 16600 1 180.0000771 15.1670000 2
16592 16593 16602 16603 1 180.0000771 15.1670000 2
16594 16593 16602 16600 1 180.0000771 15.1670000 2
16594 16593 16602 16603 1 180.0000771 15.1670000 2
16595 16594 16593 16602 1 180.0000771 15.1670000 2
16596 16594 16593 16602 1 180.0000771 15.1670000 2
16593 16594 16596 16597 1 180.0000771 15.1670000 2
16593 16594 16596 16598 1 180.0000771 15.1670000 2
16595 16594 16596 16597 1 180.0000771 15.1670000 2
16595 16594 16596 16598 1 180.0000771 15.1670000 2
16594 16596 16598 16599 1 180.0000771 15.1670000 2
16594 16596 16598 16600 1 180.0000771 15.1670000 2
16597 16596 16598 16599 1 180.0000771 15.1670000 2
16597 16596 16598 16600 1 180.0000771 15.1670000 2
16594 16598 16596 16597 4 180.0000771 4.6024000 2
16596 16598 16600 16601 1 180.0000771 15.1670000 2
16596 16598 16600 16602 1 180.0000771 15.1670000 2
16599 16598 16600 16601 1 180.0000771 15.1670000 2
16599 16598 16600 16602 1 180.0000771 15.1670000 2
16596 16600 16598 16599 4 180.0000771 4.6024000 2
16593 16600 16602 16603 4 180.0000771 4.6024000 2
16598 16600 16602 16603 1 180.0000771 15.1670000 2
16601 16600 16602 16603 1 180.0000771 15.1670000 2
16593 16602 16600 16598 1 180.0000771 15.1670000 2
16593 16602 16600 16601 1 180.0000771 15.1670000 2
16598 16602 16600 16601 4 180.0000771 4.6024000 2
16606 16607 16608 16609 1 180.0000771 15.1670000 2
16606 16607 16608 16610 1 180.0000771 15.1670000 2
16609 16607 16608 16610 4 180.0000771 4.6024000 2
16606 16607 16616 16608 4 180.0000771 4.6024000 2
16606 16607 16616 16614 1 180.0000771 15.1670000 2
16606 16607 16616 16617 1 180.0000771 15.1670000 2
16608 16607 16616 16614 1 180.0000771 15.1670000 2
16608 16607 16616 16617 1 180.0000771 15.1670000 2
16609 16608 16607 16616 1 180.0000771 15.1670000 2
16610 16608 16607 16616 1 180.0000771 15.1670000 2
16607 16608 16610 16611 1 180.0000771 15.1670000 2
16607 16608 16610 16612 1 180.0000771 15.1670000 2
16609 16608 16610 16611 1 180.0000771 15.1670000 2
16609 16608 16610 16612 1 180.0000771 15.1670000 2
16608 16610 16612 16613 1 180.0000771 15.1670000 2
16608 16610 16612 16614 1 180.0000771 15.1670000 2
16611 16610 16612 16613 1 180.0000771 15.1670000 2
16611 16610 16612 16614 1 180.0000771 15.1670000 2
16608 16612 16610 16611 4 180.0000771 4.6024000 2
16610 16612 16614 16615 1 180.0000771 15.1670000 2
16610 16612 16614 16616 1 180.0000771 15.1670000 2
16613 16612 16614 16615 1 180.0000771 15.1670000 2
16613 16612 16614 16616 1 180.0000771 15.1670000 2
16610 16614 16612 16613 4 180.0000771 4.6024000 2
16607 16614 16616 16617 4 180.0000771 4.6024000 2
16612 16614 16616 16617 1 180.0000771 15.1670000 2
16615 16614 16616 16617 1 180.0000771 15.1670000 2
16607 16616 16614 16612 1 180.0000771 15.1670000 2
16607 16616 16614 16615 1 180.0000771 15.1670000 2
16612 16616 16614 16615 4 180.0000771 4.6024000 2
16620 16621 16622 16623 1 180.0000771 15.1670000 2
16620 16621 16622 16624 1 180.0000771 15.1670000 2
16623 16621 16622 16624 4 180.0000771 4.6024000 2
16620 16621 16630 16622 4 180.0000771 4.6024000 2
16620 16621 16630 16628 1 180.0000771 15.1670000 2
16620 16621 16630 16631 1 180.0000771 15.1670000 2
16622 16621 16630 16628 1 180.0000771 15.1670000 2
16622 16621 16630 16631 1 180.0000771 15.1670000 2
16623 16622 16621 16630 1 180.0000771 15.1670000 2
16624 16622 16621 16630 1 180.0000771 15.1670000 2
16621 16622 16624 16625 1 180.0000771 15.1670000 2
16621 16622 16624 16626 1 180.0000771 15.1670000 2
16623 16622 16624 16625 1 180.0000771 15.1670000 2
16623 16622 16624 16626 1 180.0000771 15.1670000 2
16622 16624 16626 16627 1 180.0000771 15.1670000 2
16622 16624 16626 16628 1 180.0000771 15.1670000 2
16625 16624 16626 16627 1 180.0000771 15.1670000 2
16625 16624 16626 16628 1 180.0000771 15.1670000 2
16622 16626 16624 16625 4 180.0000771 4.6024000 2
16624 16626 16628 16629 1 180.0000771 15.1670000 2
16624 16626 16628 16630 1 180.0000771 15.1670000 2
16627 16626 16628 16629 1 180.0000771 15.1670000 2
16627 16626 16628 16630 1 180.0000771 15.1670000 2
16624 16628 16626 16627 4 180.0000771 4.6024000 2
16621 16628 16630 16631 4 180.0000771 4.6024000 2
16626 16628 16630 16631 1 180.0000771 15.1670000 2
16629 16628 16630 16631 1 180.0000771 15.1670000 2
16621 16630 16628 16626 1 180.0000771 15.1670000 2
16621 16630 16628 16629 1 180.0000771 15.1670000 2
16626 16630 16628 16629 4 180.0000771 4.6024000 2
16634 16635 16636 16637 1 180.0000771 15.1670000 2
16634 16635 16636 16638 1 180.0000771 15.1670000 2
16637 16635 16636 16638 4 180.0000771 4.6024000 2
16634 16635 16644 16636 4 180.0000771 4.6024000 2
16634 16635 16644 16642 1 180.0000771 15.1670000 2
16634 16635 16644 16645 1 180.0000771 15.1670000 2
16636 16635 16644 16642 1 180.0000771 15.1670000 2
16636 16635 16644 16645 1 180.0000771 15.1670000 2
16637 16636 16635 16644 1 180.0000771 15.1670000 2
16638 16636 16635 16644 1 180.0000771 15.1670000 2
16635 16636 16638 16639 1 180.0000771 15.1670000 2
16635 16636 16638 16640 1 180.0000771 15.1670000 2
16637 16636 16638 16639 1 180.0000771 15.1670000 2
16637 16636 16638 16640 1 180.0000771 15.1670000 2
16636 16638 16640 16641 1 180.0000771 15.1670000 2
16636 16638 16640 16642 1 180.0000771 15.1670000 2
16639 16638 16640 16641 1 180.0000771 15.1670000 2
16639 16638 16640 16642 1 180.0000771 15.1670000 2
16636 16640 16638 16639 4 180.0000771 4.6024000 2
16638 16640 16642 16643 1 180.0000771 15.1670000 2
16638 16640 16642 16644 1 180.0000771 15.1670000 2
16641 16640 16642 16643 1 180.0000771 15.1670000 2
16641 16640 16642 16644 1 180.0000771 15.1670000 2
16638 16642 16640 16641 4 180.0000771 4.6024000 2
16635 16642 16644 16645 4 180.0000771 4.6024000 2
16640 16642 16644 16645 1 180.0000771 15.1670000 2
16643 16642 16644 16645 1 180.0000771 15.1670000 2
16635 16644 16642 16640 1 180.0000771 15.1670000 2
16635 16644 16642 16643 1 180.0000771 15.1670000 2
16640 16644 16642 16643 4 180.0000771 4.6024000 2
16648 16649 16650 16651 1 180.0000771 15.1670000 2
16648 16649 16650 16652 1 180.0000771 15.1670000 2
16651 16649 16650 16652 4 180.0000771 4.6024000 2
16648 16649 16658 16650 4 180.0000771 4.6024000 2
16648 16649 16658 16656 1 180.0000771 15.1670000 2
16648 16649 16658 16659 1 180.0000771 15.1670000 2
16650 16649 16658 16656 1 180.0000771 15.1670000 2
16650 16649 16658 16659 1 180.0000771 15.1670000 2
16651 16650 16649 16658 1 180.0000771 15.1670000 2
16652 16650 16649 16658 1 180.0000771 15.1670000 2
16649 16650 16652 16653 1 180.0000771 15.1670000 2
16649 16650 16652 16654 1 180.0000771 15.1670000 2
16651 16650 16652 16653 1 180.0000771 15.1670000 2
16651 16650 16652 16654 1 180.0000771 15.1670000 2
16650 16652 16654 16655 1 180.0000771 15.1670000 2
16650 16652 16654 16656 1 180.0000771 15.1670000 2
16653 16652 16654 16655 1 180.0000771 15.1670000 2
16653 16652 16654 16656 1 180.0000771 15.1670000 2
16650 16654 16652 16653 4 180.0000771 4.6024000 2
16652 16654 16656 16657 1 180.0000771 15.1670000 2
16652 16654 16656 16658 1 180.0000771 15.1670000 2
16655 16654 16656 16657 1 180.0000771 15.1670000 2
16655 16654 16656 16658 1 180.0000771 15.1670000 2
16652 16656 16654 16655 4 180.0000771 4.6024000 2
16649 16656 16658 16659 4 180.0000771 4.6024000 2
16654 16656 16658 16659 1 180.0000771 15.1670000 2
16657 16656 16658 16659 1 180.0000771 15.1670000 2
16649 16658 16656 16654 1 180.0000771 15.1670000 2
16649 16658 16656 16657 1 180.0000771 15.1670000 2
16654 16658 16656 16657 4 180.0000771 4.6024000 2
16662 16663 16664 16665 1 180.0000771 15.1670000 2
16662 16663 16664 16666 1 180.0000771 15.1670000 2
16665 16663 16664 16666 4 180.0000771 4.6024000 2
16662 16663 16672 16664 4 180.0000771 4.6024000 2
16662 16663 16672 16670 1 180.0000771 15.1670000 2
16662 16663 16672 16673 1 180.0000771 15.1670000 2
16664 16663 16672 16670 1 180.0000771 15.1670000 2
16664 16663 16672 16673 1 180.0000771 15.1670000 2
16665 16664 16663 16672 1 180.0000771 15.1670000 2
16666 16664 16663 16672 1 180.0000771 15.1670000 2
16663 16664 16666 16667 1 180.0000771 15.1670000 2
16663 16664 16666 16668 1 180.0000771 15.1670000 2
16665 16664 16666 16667 1 180.0000771 15.1670000 2
16665 16664 16666 16668 1 180.0000771 15.1670000 2
16664 16666 16668 16669 1 180.0000771 15.1670000 2
16664 16666 16668 16670 1 180.0000771 15.1670000 2
16667 16666 16668 16669 1 180.0000771 15.1670000 2
16667 16666 16668 16670 1 180.0000771 15.1670000 2
16664 16668 16666 16667 4 180.0000771 4.6024000 2
16666 16668 16670 16671 1 180.0000771 15.1670000 2
16666 16668 16670 16672 1 180.0000771 15.1670000 2
16669 16668 16670 16671 1 180.0000771 15.1670000 2
16669 16668 16670 16672 1 180.0000771 15.1670000 2
16666 16670 16668 16669 4 180.0000771 4.6024000 2
16663 16670 16672 16673 4 180.0000771 4.6024000 2
16668 16670 16672 16673 1 180.0000771 15.1670000 2
16671 16670 16672 16673 1 180.0000771 15.1670000 2
16663 16672 16670 16668 1 180.0000771 15.1670000 2
16663 16672 16670 16671 1 180.0000771 15.1670000 2
16668 16672 16670 16671 4 180.0000771 4.6024000 2
16676 16677 16678 16679 1 180.0000771 15.1670000 2
16676 16677 16678 16680 1 180.0000771 15.1670000 2
16679 16677 16678 16680 4 180.0000771 4.6024000 2
16676 16677 16686 16678 4 180.0000771 4.6024000 2
16676 16677 16686 16684 1 180.0000771 15.1670000 2
16676 16677 16686 16687 1 180.0000771 15.1670000 2
16678 16677 16686 16684 1 180.0000771 15.1670000 2
16678 16677 16686 16687 1 180.0000771 15.1670000 2
16679 16678 16677 16686 1 180.0000771 15.1670000 2
16680 16678 16677 16686 1 180.0000771 15.1670000 2
16677 16678 16680 16681 1 180.0000771 15.1670000 2
16677 16678 16680 16682 1 180.0000771 15.1670000 2
16679 16678 16680 16681 1 180.0000771 15.1670000 2
16679 16678 16680 16682 1 180.0000771 15.1670000 2
16678 16680 16682 16683 1 180.0000771 15.1670000 2
16678 16680 16682 16684 1 180.0000771 15.1670000 2
16681 16680 16682 16683 1 180.0000771 15.1670000 2
16681 16680 16682 16684 1 180.0000771 15.1670000 2
16678 16682 16680 16681 4 180.0000771 4.6024000 2
16680 16682 16684 16685 1 180.0000771 15.1670000 2
16680 16682 16684 16686 1 180.0000771 15.1670000 2
16683 16682 16684 16685 1 180.0000771 15.1670000 2
16683 16682 16684 16686 1 180.0000771 15.1670000 2
16680 16684 16682 16683 4 180.0000771 4.6024000 2
16677 16684 16686 16687 4 180.0000771 4.6024000 2
16682 16684 16686 16687 1 180.0000771 15.1670000 2
16685 16684 16686 16687 1 180.0000771 15.1670000 2
16677 16686 16684 16682 1 180.0000771 15.1670000 2
16677 16686 16684 16685 1 180.0000771 15.1670000 2
16682 16686 16684 16685 4 180.0000771 4.6024000 2
16690 16691 16692 16693 1 180.0000771 15.1670000 2
16690 16691 16692 16694 1 180.0000771 15.1670000 2
16693 16691 16692 16694 4 180.0000771 4.6024000 2
16690 16691 16700 16692 4 180.0000771 4.6024000 2
16690 16691 16700 16698 1 180.0000771 15.1670000 2
16690 16691 16700 16701 1 180.0000771 15.1670000 2
16692 16691 16700 16698 1 180.0000771 15.1670000 2
16692 16691 16700 16701 1 180.0000771 15.1670000 2
16693 16692 16691 16700 1 180.0000771 15.1670000 2
16694 16692 16691 16700 1 180.0000771 15.1670000 2
16691 16692 16694 16695 1 180.0000771 15.1670000 2
16691 16692 16694 16696 1 180.0000771 15.1670000 2
16693 16692 16694 16695 1 180.0000771 15.1670000 2
16693 16692 16694 16696 1 180.0000771 15.1670000 2
16692 16694 16696 16697 1 180.0000771 15.1670000 2
16692 16694 16696 16698 1 180.0000771 15.1670000 2
16695 16694 16696 16697 1 180.0000771 15.1670000 2
16695 16694 16696 16698 1 180.0000771 15.1670000 2
16692 16696 16694 16695 4 180.0000771 4.6024000 2
16694 16696 16698 16699 1 180.0000771 15.1670000 2
16694 16696 16698 16700 1 180.0000771 15.1670000 2
16697 16696 16698 16699 1 180.0000771 15.1670000 2
16697 16696 16698 16700 1 180.0000771 15.1670000 2
16694 16698 16696 16697 4 180.0000771 4.6024000 2
16691 16698 16700 16701 4 180.0000771 4.6024000 2
16696 16698 16700 16701 1 180.0000771 15.1670000 2
16699 16698 16700 16701 1 180.0000771 15.1670000 2
16691 16700 16698 16696 1 180.0000771 15.1670000 2
16691 16700 16698 16699 1 180.0000771 15.1670000 2
16696 16700 16698 16699 4 180.0000771 4.6024000 2
16704 16705 16706 16707 1 180.0000771 15.1670000 2
16704 16705 16706 16708 1 180.0000771 15.1670000 2
16707 16705 16706 16708 4 180.0000771 4.6024000 2
16704 16705 16714 16706 4 180.0000771 4.6024000 2
16704 16705 16714 16712 1 180.0000771 15.1670000 2
16704 16705 16714 16715 1 180.0000771 15.1670000 2
16706 16705 16714 16712 1 180.0000771 15.1670000 2
16706 16705 16714 16715 1 180.0000771 15.1670000 2
16707 16706 16705 16714 1 180.0000771 15.1670000 2
16708 16706 16705 16714 1 180.0000771 15.1670000 2
16705 16706 16708 16709 1 180.0000771 15.1670000 2
16705 16706 16708 16710 1 180.0000771 15.1670000 2
16707 16706 16708 16709 1 180.0000771 15.1670000 2
16707 16706 16708 16710 1 180.0000771 15.1670000 2
16706 16708 16710 16711 1 180.0000771 15.1670000 2
16706 16708 16710 16712 1 180.0000771 15.1670000 2
16709 16708 16710 16711 1 180.0000771 15.1670000 2
16709 16708 16710 16712 1 180.0000771 15.1670000 2
16706 16710 16708 16709 4 180.0000771 4.6024000 2
16708 16710 16712 16713 1 180.0000771 15.1670000 2
16708 16710 16712 16714 1 180.0000771 15.1670000 2
16711 16710 16712 16713 1 180.0000771 15.1670000 2
16711 16710 16712 16714 1 180.0000771 15.1670000 2
16708 16712 16710 16711 4 180.0000771 4.6024000 2
16705 16712 16714 16715 4 180.0000771 4.6024000 2
16710 16712 16714 16715 1 180.0000771 15.1670000 2
16713 16712 16714 16715 1 180.0000771 15.1670000 2
16705 16714 16712 16710 1 180.0000771 15.1670000 2
16705 16714 16712 16713 1 180.0000771 15.1670000 2
16710 16714 16712 16713 4 180.0000771 4.6024000 2
16718 16719 16720 16721 1 180.0000771 15.1670000 2
16718 16719 16720 16722 1 180.0000771 15.1670000 2
16721 16719 16720 16722 4 180.0000771 4.6024000 2
16718 16719 16728 16720 4 180.0000771 4.6024000 2
16718 16719 16728 16726 1 180.0000771 15.1670000 2
16718 16719 16728 16729 1 180.0000771 15.1670000 2
16720 16719 16728 16726 1 180.0000771 15.1670000 2
16720 16719 16728 16729 1 180.0000771 15.1670000 2
16721 16720 16719 16728 1 180.0000771 15.1670000 2
16722 16720 16719 16728 1 180.0000771 15.1670000 2
16719 16720 16722 16723 1 180.0000771 15.1670000 2
16719 16720 16722 16724 1 180.0000771 15.1670000 2
16721 16720 16722 16723 1 180.0000771 15.1670000 2
16721 16720 16722 16724 1 180.0000771 15.1670000 2
16720 16722 16724 16725 1 180.0000771 15.1670000 2
16720 16722 16724 16726 1 180.0000771 15.1670000 2
16723 16722 16724 16725 1 180.0000771 15.1670000 2
16723 16722 16724 16726 1 180.0000771 15.1670000 2
16720 16724 16722 16723 4 180.0000771 4.6024000 2
16722 16724 16726 16727 1 180.0000771 15.1670000 2
16722 16724 16726 16728 1 180.0000771 15.1670000 2
16725 16724 16726 16727 1 180.0000771 15.1670000 2
16725 16724 16726 16728 1 180.0000771 15.1670000 2
16722 16726 16724 16725 4 180.0000771 4.6024000 2
16719 16726 16728 16729 4 180.0000771 4.6024000 2
16724 16726 16728 16729 1 180.0000771 15.1670000 2
16727 16726 16728 16729 1 180.0000771 15.1670000 2
16719 16728 16726 16724 1 180.0000771 15.1670000 2
16719 16728 16726 16727 1 180.0000771 15.1670000 2
16724 16728 16726 16727 4 180.0000771 4.6024000 2
16732 16733 16734 16735 1 180.0000771 15.1670000 2
16732 16733 16734 16736 1 180.0000771 15.1670000 2
16735 16733 16734 16736 4 180.0000771 4.6024000 2
16732 16733 16742 16734 4 180.0000771 4.6024000 2
16732 16733 16742 16740 1 180.0000771 15.1670000 2
16732 16733 16742 16743 1 180.0000771 15.1670000 2
16734 16733 16742 16740 1 180.0000771 15.1670000 2
16734 16733 16742 16743 1 180.0000771 15.1670000 2
16735 16734 16733 16742 1 180.0000771 15.1670000 2
16736 16734 16733 16742 1 180.0000771 15.1670000 2
16733 16734 16736 16737 1 180.0000771 15.1670000 2
16733 16734 16736 16738 1 180.0000771 15.1670000 2
16735 16734 16736 16737 1 180.0000771 15.1670000 2
16735 16734 16736 16738 1 180.0000771 15.1670000 2
16734 16736 16738 16739 1 180.0000771 15.1670000 2
16734 16736 16738 16740 1 180.0000771 15.1670000 2
16737 16736 16738 16739 1 180.0000771 15.1670000 2
16737 16736 16738 16740 1 180.0000771 15.1670000 2
16734 16738 16736 16737 4 180.0000771 4.6024000 2
16736 16738 16740 16741 1 180.0000771 15.1670000 2
16736 16738 16740 16742 1 180.0000771 15.1670000 2
16739 16738 16740 16741 1 180.0000771 15.1670000 2
16739 16738 16740 16742 1 180.0000771 15.1670000 2
16736 16740 16738 16739 4 180.0000771 4.6024000 2
16733 16740 16742 16743 4 180.0000771 4.6024000 2
16738 16740 16742 16743 1 180.0000771 15.1670000 2
16741 16740 16742 16743 1 180.0000771 15.1670000 2
16733 16742 16740 16738 1 180.0000771 15.1670000 2
16733 16742 16740 16741 1 180.0000771 15.1670000 2
16738 16742 16740 16741 4 180.0000771 4.6024000 2
16746 16747 16748 16749 1 180.0000771 15.1670000 2
16746 16747 16748 16750 1 180.0000771 15.1670000 2
16749 16747 16748 16750 4 180.0000771 4.6024000 2
16746 16747 16756 16748 4 180.0000771 4.6024000 2
16746 16747 16756 16754 1 180.0000771 15.1670000 2
16746 16747 16756 16757 1 180.0000771 15.1670000 2
16748 16747 16756 16754 1 180.0000771 15.1670000 2
16748 16747 16756 16757 1 180.0000771 15.1670000 2
16749 16748 16747 16756 1 180.0000771 15.1670000 2
16750 16748 16747 16756 1 180.0000771 15.1670000 2
16747 16748 16750 16751 1 180.0000771 15.1670000 2
16747 16748 16750 16752 1 180.0000771 15.1670000 2
16749 16748 16750 16751 1 180.0000771 15.1670000 2
16749 16748 16750 16752 1 180.0000771 15.1670000 2
16748 16750 16752 16753 1 180.0000771 15.1670000 2
16748 16750 16752 16754 1 180.0000771 15.1670000 2
16751 16750 16752 16753 1 180.0000771 15.1670000 2
16751 16750 16752 16754 1 180.0000771 15.1670000 2
16748 16752 16750 16751 4 180.0000771 4.6024000 2
16750 16752 16754 16755 1 180.0000771 15.1670000 2
16750 16752 16754 16756 1 180.0000771 15.1670000 2
16753 16752 16754 16755 1 180.0000771 15.1670000 2
16753 16752 16754 16756 1 180.0000771 15.1670000 2
16750 16754 16752 16753 4 180.0000771 4.6024000 2
16747 16754 16756 16757 4 180.0000771 4.6024000 2
16752 16754 16756 16757 1 180.0000771 15.1670000 2
16755 16754 16756 16757 1 180.0000771 15.1670000 2
16747 16756 16754 16752 1 180.0000771 15.1670000 2
16747 16756 16754 16755 1 180.0000771 15.1670000 2
16752 16756 16754 16755 4 180.0000771 4.6024000 2
16760 16761 16762 16763 1 180.0000771 15.1670000 2
16760 16761 16762 16764 1 180.0000771 15.1670000 2
16763 16761 16762 16764 4 180.0000771 4.6024000 2
16760 16761 16770 16762 4 180.0000771 4.6024000 2
16760 16761 16770 16768 1 180.0000771 15.1670000 2
16760 16761 16770 16771 1 180.0000771 15.1670000 2
16762 16761 16770 16768 1 180.0000771 15.1670000 2
16762 16761 16770 16771 1 180.0000771 15.1670000 2
16763 16762 16761 16770 1 180.0000771 15.1670000 2
16764 16762 16761 16770 1 180.0000771 15.1670000 2
16761 16762 16764 16765 1 180.0000771 15.1670000 2
16761 16762 16764 16766 1 180.0000771 15.1670000 2
16763 16762 16764 16765 1 180.0000771 15.1670000 2
16763 16762 16764 16766 1 180.0000771 15.1670000 2
16762 16764 16766 16767 1 180.0000771 15.1670000 2
16762 16764 16766 16768 1 180.0000771 15.1670000 2
16765 16764 16766 16767 1 180.0000771 15.1670000 2
16765 16764 16766 16768 1 180.0000771 15.1670000 2
16762 16766 16764 16765 4 180.0000771 4.6024000 2
16764 16766 16768 16769 1 180.0000771 15.1670000 2
16764 16766 16768 16770 1 180.0000771 15.1670000 2
16767 16766 16768 16769 1 180.0000771 15.1670000 2
16767 16766 16768 16770 1 180.0000771 15.1670000 2
16764 16768 16766 16767 4 180.0000771 4.6024000 2
16761 16768 16770 16771 4 180.0000771 4.6024000 2
16766 16768 16770 16771 1 180.0000771 15.1670000 2
16769 16768 16770 16771 1 180.0000771 15.1670000 2
16761 16770 16768 16766 1 180.0000771 15.1670000 2
16761 16770 16768 16769 1 180.0000771 15.1670000 2
16766 16770 16768 16769 4 180.0000771 4.6024000 2
16774 16775 16776 16777 1 180.0000771 15.1670000 2
16774 16775 16776 16778 1 180.0000771 15.1670000 2
16777 16775 16776 16778 4 180.0000771 4.6024000 2
16774 16775 16784 16776 4 180.0000771 4.6024000 2
16774 16775 16784 16782 1 180.0000771 15.1670000 2
16774 16775 16784 16785 1 180.0000771 15.1670000 2
16776 16775 16784 16782 1 180.0000771 15.1670000 2
16776 16775 16784 16785 1 180.0000771 15.1670000 2
16777 16776 16775 16784 1 180.0000771 15.1670000 2
16778 16776 16775 16784 1 180.0000771 15.1670000 2
16775 16776 16778 16779 1 180.0000771 15.1670000 2
16775 16776 16778 16780 1 180.0000771 15.1670000 2
16777 16776 16778 16779 1 180.0000771 15.1670000 2
16777 16776 16778 16780 1 180.0000771 15.1670000 2
16776 16778 16780 16781 1 180.0000771 15.1670000 2
16776 16778 16780 16782 1 180.0000771 15.1670000 2
16779 16778 16780 16781 1 180.0000771 15.1670000 2
16779 16778 16780 16782 1 180.0000771 15.1670000 2
16776 16780 16778 16779 4 180.0000771 4.6024000 2
16778 16780 16782 16783 1 180.0000771 15.1670000 2
16778 16780 16782 16784 1 180.0000771 15.1670000 2
16781 16780 16782 16783 1 180.0000771 15.1670000 2
16781 16780 16782 16784 1 180.0000771 15.1670000 2
16778 16782 16780 16781 4 180.0000771 4.6024000 2
16775 16782 16784 16785 4 180.0000771 4.6024000 2
16780 16782 16784 16785 1 180.0000771 15.1670000 2
16783 16782 16784 16785 1 180.0000771 15.1670000 2
16775 16784 16782 16780 1 180.0000771 15.1670000 2
16775 16784 16782 16783 1 180.0000771 15.1670000 2
16780 16784 16782 16783 4 180.0000771 4.6024000 2
16788 16789 16790 16791 1 180.0000771 15.1670000 2
16788 16789 16790 16792 1 180.0000771 15.1670000 2
16791 16789 16790 16792 4 180.0000771 4.6024000 2
16788 16789 16798 16790 4 180.0000771 4.6024000 2
16788 16789 16798 16796 1 180.0000771 15.1670000 2
16788 16789 16798 16799 1 180.0000771 15.1670000 2
16790 16789 16798 16796 1 180.0000771 15.1670000 2
16790 16789 16798 16799 1 180.0000771 15.1670000 2
16791 16790 16789 16798 1 180.0000771 15.1670000 2
16792 16790 16789 16798 1 180.0000771 15.1670000 2
16789 16790 16792 16793 1 180.0000771 15.1670000 2
16789 16790 16792 16794 1 180.0000771 15.1670000 2
16791 16790 16792 16793 1 180.0000771 15.1670000 2
16791 16790 16792 16794 1 180.0000771 15.1670000 2
16790 16792 16794 16795 1 180.0000771 15.1670000 2
16790 16792 16794 16796 1 180.0000771 15.1670000 2
16793 16792 16794 16795 1 180.0000771 15.1670000 2
16793 16792 16794 16796 1 180.0000771 15.1670000 2
16790 16794 16792 16793 4 180.0000771 4.6024000 2
16792 16794 16796 16797 1 180.0000771 15.1670000 2
16792 16794 16796 16798 1 180.0000771 15.1670000 2
16795 16794 16796 16797 1 180.0000771 15.1670000 2
16795 16794 16796 16798 1 180.0000771 15.1670000 2
16792 16796 16794 16795 4 180.0000771 4.6024000 2
16789 16796 16798 16799 4 180.0000771 4.6024000 2
16794 16796 16798 16799 1 180.0000771 15.1670000 2
16797 16796 16798 16799 1 180.0000771 15.1670000 2
16789 16798 16796 16794 1 180.0000771 15.1670000 2
16789 16798 16796 16797 1 180.0000771 15.1670000 2
16794 16798 16796 16797 4 180.0000771 4.6024000 2
16802 16803 16804 16805 1 180.0000771 15.1670000 2
16802 16803 16804 16806 1 180.0000771 15.1670000 2
16805 16803 16804 16806 4 180.0000771 4.6024000 2
16802 16803 16812 16804 4 180.0000771 4.6024000 2
16802 16803 16812 16810 1 180.0000771 15.1670000 2
16802 16803 16812 16813 1 180.0000771 15.1670000 2
16804 16803 16812 16810 1 180.0000771 15.1670000 2
16804 16803 16812 16813 1 180.0000771 15.1670000 2
16805 16804 16803 16812 1 180.0000771 15.1670000 2
16806 16804 16803 16812 1 180.0000771 15.1670000 2
16803 16804 16806 16807 1 180.0000771 15.1670000 2
16803 16804 16806 16808 1 180.0000771 15.1670000 2
16805 16804 16806 16807 1 180.0000771 15.1670000 2
16805 16804 16806 16808 1 180.0000771 15.1670000 2
16804 16806 16808 16809 1 180.0000771 15.1670000 2
16804 16806 16808 16810 1 180.0000771 15.1670000 2
16807 16806 16808 16809 1 180.0000771 15.1670000 2
16807 16806 16808 16810 1 180.0000771 15.1670000 2
16804 16808 16806 16807 4 180.0000771 4.6024000 2
16806 16808 16810 16811 1 180.0000771 15.1670000 2
16806 16808 16810 16812 1 180.0000771 15.1670000 2
16809 16808 16810 16811 1 180.0000771 15.1670000 2
16809 16808 16810 16812 1 180.0000771 15.1670000 2
16806 16810 16808 16809 4 180.0000771 4.6024000 2
16803 16810 16812 16813 4 180.0000771 4.6024000 2
16808 16810 16812 16813 1 180.0000771 15.1670000 2
16811 16810 16812 16813 1 180.0000771 15.1670000 2
16803 16812 16810 16808 1 180.0000771 15.1670000 2
16803 16812 16810 16811 1 180.0000771 15.1670000 2
16808 16812 16810 16811 4 180.0000771 4.6024000 2
16816 16817 16818 16819 1 180.0000771 15.1670000 2
16816 16817 16818 16820 1 180.0000771 15.1670000 2
16819 16817 16818 16820 4 180.0000771 4.6024000 2
16816 16817 16826 16818 4 180.0000771 4.6024000 2
16816 16817 16826 16824 1 180.0000771 15.1670000 2
16816 16817 16826 16827 1 180.0000771 15.1670000 2
16818 16817 16826 16824 1 180.0000771 15.1670000 2
16818 16817 16826 16827 1 180.0000771 15.1670000 2
16819 16818 16817 16826 1 180.0000771 15.1670000 2
16820 16818 16817 16826 1 180.0000771 15.1670000 2
16817 16818 16820 16821 1 180.0000771 15.1670000 2
16817 16818 16820 16822 1 180.0000771 15.1670000 2
16819 16818 16820 16821 1 180.0000771 15.1670000 2
16819 16818 16820 16822 1 180.0000771 15.1670000 2
16818 16820 16822 16823 1 180.0000771 15.1670000 2
16818 16820 16822 16824 1 180.0000771 15.1670000 2
16821 16820 16822 16823 1 180.0000771 15.1670000 2
16821 16820 16822 16824 1 180.0000771 15.1670000 2
16818 16822 16820 16821 4 180.0000771 4.6024000 2
16820 16822 16824 16825 1 180.0000771 15.1670000 2
16820 16822 16824 16826 1 180.0000771 15.1670000 2
16823 16822 16824 16825 1 180.0000771 15.1670000 2
16823 16822 16824 16826 1 180.0000771 15.1670000 2
16820 16824 16822 16823 4 180.0000771 4.6024000 2
16817 16824 16826 16827 4 180.0000771 4.6024000 2
16822 16824 16826 16827 1 180.0000771 15.1670000 2
16825 16824 16826 16827 1 180.0000771 15.1670000 2
16817 16826 16824 16822 1 180.0000771 15.1670000 2
16817 16826 16824 16825 1 180.0000771 15.1670000 2
16822 16826 16824 16825 4 180.0000771 4.6024000 2
16830 16831 16832 16833 1 180.0000771 15.1670000 2
16830 16831 16832 16834 1 180.0000771 15.1670000 2
16833 16831 16832 16834 4 180.0000771 4.6024000 2
16830 16831 16840 16832 4 180.0000771 4.6024000 2
16830 16831 16840 16838 1 180.0000771 15.1670000 2
16830 16831 16840 16841 1 180.0000771 15.1670000 2
16832 16831 16840 16838 1 180.0000771 15.1670000 2
16832 16831 16840 16841 1 180.0000771 15.1670000 2
16833 16832 16831 16840 1 180.0000771 15.1670000 2
16834 16832 16831 16840 1 180.0000771 15.1670000 2
16831 16832 16834 16835 1 180.0000771 15.1670000 2
16831 16832 16834 16836 1 180.0000771 15.1670000 2
16833 16832 16834 16835 1 180.0000771 15.1670000 2
16833 16832 16834 16836 1 180.0000771 15.1670000 2
16832 16834 16836 16837 1 180.0000771 15.1670000 2
16832 16834 16836 16838 1 180.0000771 15.1670000 2
16835 16834 16836 16837 1 180.0000771 15.1670000 2
16835 16834 16836 16838 1 180.0000771 15.1670000 2
16832 16836 16834 16835 4 180.0000771 4.6024000 2
16834 16836 16838 16839 1 180.0000771 15.1670000 2
16834 16836 16838 16840 1 180.0000771 15.1670000 2
16837 16836 16838 16839 1 180.0000771 15.1670000 2
16837 16836 16838 16840 1 180.0000771 15.1670000 2
16834 16838 16836 16837 4 180.0000771 4.6024000 2
16831 16838 16840 16841 4 180.0000771 4.6024000 2
16836 16838 16840 16841 1 180.0000771 15.1670000 2
16839 16838 16840 16841 1 180.0000771 15.1670000 2
16831 16840 16838 16836 1 180.0000771 15.1670000 2
16831 16840 16838 16839 1 180.0000771 15.1670000 2
16836 16840 16838 16839 4 180.0000771 4.6024000 2
16844 16845 16846 16847 1 180.0000771 15.1670000 2
16844 16845 16846 16848 1 180.0000771 15.1670000 2
16847 16845 16846 16848 4 180.0000771 4.6024000 2
16844 16845 16854 16846 4 180.0000771 4.6024000 2
16844 16845 16854 16852 1 180.0000771 15.1670000 2
16844 16845 16854 16855 1 180.0000771 15.1670000 2
16846 16845 16854 16852 1 180.0000771 15.1670000 2
16846 16845 16854 16855 1 180.0000771 15.1670000 2
16847 16846 16845 16854 1 180.0000771 15.1670000 2
16848 16846 16845 16854 1 180.0000771 15.1670000 2
16845 16846 16848 16849 1 180.0000771 15.1670000 2
16845 16846 16848 16850 1 180.0000771 15.1670000 2
16847 16846 16848 16849 1 180.0000771 15.1670000 2
16847 16846 16848 16850 1 180.0000771 15.1670000 2
16846 16848 16850 16851 1 180.0000771 15.1670000 2
16846 16848 16850 16852 1 180.0000771 15.1670000 2
16849 16848 16850 16851 1 180.0000771 15.1670000 2
16849 16848 16850 16852 1 180.0000771 15.1670000 2
16846 16850 16848 16849 4 180.0000771 4.6024000 2
16848 16850 16852 16853 1 180.0000771 15.1670000 2
16848 16850 16852 16854 1 180.0000771 15.1670000 2
16851 16850 16852 16853 1 180.0000771 15.1670000 2
16851 16850 16852 16854 1 180.0000771 15.1670000 2
16848 16852 16850 16851 4 180.0000771 4.6024000 2
16845 16852 16854 16855 4 180.0000771 4.6024000 2
16850 16852 16854 16855 1 180.0000771 15.1670000 2
16853 16852 16854 16855 1 180.0000771 15.1670000 2
16845 16854 16852 16850 1 180.0000771 15.1670000 2
16845 16854 16852 16853 1 180.0000771 15.1670000 2
16850 16854 16852 16853 4 180.0000771 4.6024000 2
16858 16859 16860 16861 1 180.0000771 15.1670000 2
16858 16859 16860 16862 1 180.0000771 15.1670000 2
16861 16859 16860 16862 4 180.0000771 4.6024000 2
16858 16859 16868 16860 4 180.0000771 4.6024000 2
16858 16859 16868 16866 1 180.0000771 15.1670000 2
16858 16859 16868 16869 1 180.0000771 15.1670000 2
16860 16859 16868 16866 1 180.0000771 15.1670000 2
16860 16859 16868 16869 1 180.0000771 15.1670000 2
16861 16860 16859 16868 1 180.0000771 15.1670000 2
16862 16860 16859 16868 1 180.0000771 15.1670000 2
16859 16860 16862 16863 1 180.0000771 15.1670000 2
16859 16860 16862 16864 1 180.0000771 15.1670000 2
16861 16860 16862 16863 1 180.0000771 15.1670000 2
16861 16860 16862 16864 1 180.0000771 15.1670000 2
16860 16862 16864 16865 1 180.0000771 15.1670000 2
16860 16862 16864 16866 1 180.0000771 15.1670000 2
16863 16862 16864 16865 1 180.0000771 15.1670000 2
16863 16862 16864 16866 1 180.0000771 15.1670000 2
16860 16864 16862 16863 4 180.0000771 4.6024000 2
16862 16864 16866 16867 1 180.0000771 15.1670000 2
16862 16864 16866 16868 1 180.0000771 15.1670000 2
16865 16864 16866 16867 1 180.0000771 15.1670000 2
16865 16864 16866 16868 1 180.0000771 15.1670000 2
16862 16866 16864 16865 4 180.0000771 4.6024000 2
16859 16866 16868 16869 4 180.0000771 4.6024000 2
16864 16866 16868 16869 1 180.0000771 15.1670000 2
16867 16866 16868 16869 1 180.0000771 15.1670000 2
16859 16868 16866 16864 1 180.0000771 15.1670000 2
16859 16868 16866 16867 1 180.0000771 15.1670000 2
16864 16868 16866 16867 4 180.0000771 4.6024000 2
16872 16873 16874 16875 1 180.0000771 15.1670000 2
16872 16873 16874 16876 1 180.0000771 15.1670000 2
16875 16873 16874 16876 4 180.0000771 4.6024000 2
16872 16873 16882 16874 4 180.0000771 4.6024000 2
16872 16873 16882 16880 1 180.0000771 15.1670000 2
16872 16873 16882 16883 1 180.0000771 15.1670000 2
16874 16873 16882 16880 1 180.0000771 15.1670000 2
16874 16873 16882 16883 1 180.0000771 15.1670000 2
16875 16874 16873 16882 1 180.0000771 15.1670000 2
16876 16874 16873 16882 1 180.0000771 15.1670000 2
16873 16874 16876 16877 1 180.0000771 15.1670000 2
16873 16874 16876 16878 1 180.0000771 15.1670000 2
16875 16874 16876 16877 1 180.0000771 15.1670000 2
16875 16874 16876 16878 1 180.0000771 15.1670000 2
16874 16876 16878 16879 1 180.0000771 15.1670000 2
16874 16876 16878 16880 1 180.0000771 15.1670000 2
16877 16876 16878 16879 1 180.0000771 15.1670000 2
16877 16876 16878 16880 1 180.0000771 15.1670000 2
16874 16878 16876 16877 4 180.0000771 4.6024000 2
16876 16878 16880 16881 1 180.0000771 15.1670000 2
16876 16878 16880 16882 1 180.0000771 15.1670000 2
16879 16878 16880 16881 1 180.0000771 15.1670000 2
16879 16878 16880 16882 1 180.0000771 15.1670000 2
16876 16880 16878 16879 4 180.0000771 4.6024000 2
16873 16880 16882 16883 4 180.0000771 4.6024000 2
16878 16880 16882 16883 1 180.0000771 15.1670000 2
16881 16880 16882 16883 1 180.0000771 15.1670000 2
16873 16882 16880 16878 1 180.0000771 15.1670000 2
16873 16882 16880 16881 1 180.0000771 15.1670000 2
16878 16882 16880 16881 4 180.0000771 4.6024000 2
16886 16887 16888 16889 1 180.0000771 15.1670000 2
16886 16887 16888 16890 1 180.0000771 15.1670000 2
16889 16887 16888 16890 4 180.0000771 4.6024000 2
16886 16887 16896 16888 4 180.0000771 4.6024000 2
16886 16887 16896 16894 1 180.0000771 15.1670000 2
16886 16887 16896 16897 1 180.0000771 15.1670000 2
16888 16887 16896 16894 1 180.0000771 15.1670000 2
16888 16887 16896 16897 1 180.0000771 15.1670000 2
16889 16888 16887 16896 1 180.0000771 15.1670000 2
16890 16888 16887 16896 1 180.0000771 15.1670000 2
16887 16888 16890 16891 1 180.0000771 15.1670000 2
16887 16888 16890 16892 1 180.0000771 15.1670000 2
16889 16888 16890 16891 1 180.0000771 15.1670000 2
16889 16888 16890 16892 1 180.0000771 15.1670000 2
16888 16890 16892 16893 1 180.0000771 15.1670000 2
16888 16890 16892 16894 1 180.0000771 15.1670000 2
16891 16890 16892 16893 1 180.0000771 15.1670000 2
16891 16890 16892 16894 1 180.0000771 15.1670000 2
16888 16892 16890 16891 4 180.0000771 4.6024000 2
16890 16892 16894 16895 1 180.0000771 15.1670000 2
16890 16892 16894 16896 1 180.0000771 15.1670000 2
16893 16892 16894 16895 1 180.0000771 15.1670000 2
16893 16892 16894 16896 1 180.0000771 15.1670000 2
16890 16894 16892 16893 4 180.0000771 4.6024000 2
16887 16894 16896 16897 4 180.0000771 4.6024000 2
16892 16894 16896 16897 1 180.0000771 15.1670000 2
16895 16894 16896 16897 1 180.0000771 15.1670000 2
16887 16896 16894 16892 1 180.0000771 15.1670000 2
16887 16896 16894 16895 1 180.0000771 15.1670000 2
16892 16896 16894 16895 4 180.0000771 4.6024000 2
16900 16901 16902 16903 1 180.0000771 15.1670000 2
16900 16901 16902 16904 1 180.0000771 15.1670000 2
16903 16901 16902 16904 4 180.0000771 4.6024000 2
16900 16901 16910 16902 4 180.0000771 4.6024000 2
16900 16901 16910 16908 1 180.0000771 15.1670000 2
16900 16901 16910 16911 1 180.0000771 15.1670000 2
16902 16901 16910 16908 1 180.0000771 15.1670000 2
16902 16901 16910 16911 1 180.0000771 15.1670000 2
16903 16902 16901 16910 1 180.0000771 15.1670000 2
16904 16902 16901 16910 1 180.0000771 15.1670000 2
16901 16902 16904 16905 1 180.0000771 15.1670000 2
16901 16902 16904 16906 1 180.0000771 15.1670000 2
16903 16902 16904 16905 1 180.0000771 15.1670000 2
16903 16902 16904 16906 1 180.0000771 15.1670000 2
16902 16904 16906 16907 1 180.0000771 15.1670000 2
16902 16904 16906 16908 1 180.0000771 15.1670000 2
16905 16904 16906 16907 1 180.0000771 15.1670000 2
16905 16904 16906 16908 1 180.0000771 15.1670000 2
16902 16906 16904 16905 4 180.0000771 4.6024000 2
16904 16906 16908 16909 1 180.0000771 15.1670000 2
16904 16906 16908 16910 1 180.0000771 15.1670000 2
16907 16906 16908 16909 1 180.0000771 15.1670000 2
16907 16906 16908 16910 1 180.0000771 15.1670000 2
16904 16908 16906 16907 4 180.0000771 4.6024000 2
16901 16908 16910 16911 4 180.0000771 4.6024000 2
16906 16908 16910 16911 1 180.0000771 15.1670000 2
16909 16908 16910 16911 1 180.0000771 15.1670000 2
16901 16910 16908 16906 1 180.0000771 15.1670000 2
16901 16910 16908 16909 1 180.0000771 15.1670000 2
16906 16910 16908 16909 4 180.0000771 4.6024000 2
16914 16915 16916 16917 1 180.0000771 15.1670000 2
16914 16915 16916 16918 1 180.0000771 15.1670000 2
16917 16915 16916 16918 4 180.0000771 4.6024000 2
16914 16915 16924 16916 4 180.0000771 4.6024000 2
16914 16915 16924 16922 1 180.0000771 15.1670000 2
16914 16915 16924 16925 1 180.0000771 15.1670000 2
16916 16915 16924 16922 1 180.0000771 15.1670000 2
16916 16915 16924 16925 1 180.0000771 15.1670000 2
16917 16916 16915 16924 1 180.0000771 15.1670000 2
16918 16916 16915 16924 1 180.0000771 15.1670000 2
16915 16916 16918 16919 1 180.0000771 15.1670000 2
16915 16916 16918 16920 1 180.0000771 15.1670000 2
16917 16916 16918 16919 1 180.0000771 15.1670000 2
16917 16916 16918 16920 1 180.0000771 15.1670000 2
16916 16918 16920 16921 1 180.0000771 15.1670000 2
16916 16918 16920 16922 1 180.0000771 15.1670000 2
16919 16918 16920 16921 1 180.0000771 15.1670000 2
16919 16918 16920 16922 1 180.0000771 15.1670000 2
16916 16920 16918 16919 4 180.0000771 4.6024000 2
16918 16920 16922 16923 1 180.0000771 15.1670000 2
16918 16920 16922 16924 1 180.0000771 15.1670000 2
16921 16920 16922 16923 1 180.0000771 15.1670000 2
16921 16920 16922 16924 1 180.0000771 15.1670000 2
16918 16922 16920 16921 4 180.0000771 4.6024000 2
16915 16922 16924 16925 4 180.0000771 4.6024000 2
16920 16922 16924 16925 1 180.0000771 15.1670000 2
16923 16922 16924 16925 1 180.0000771 15.1670000 2
16915 16924 16922 16920 1 180.0000771 15.1670000 2
16915 16924 16922 16923 1 180.0000771 15.1670000 2
16920 16924 16922 16923 4 180.0000771 4.6024000 2
16928 16929 16930 16931 1 180.0000771 15.1670000 2
16928 16929 16930 16932 1 180.0000771 15.1670000 2
16931 16929 16930 16932 4 180.0000771 4.6024000 2
16928 16929 16938 16930 4 180.0000771 4.6024000 2
16928 16929 16938 16936 1 180.0000771 15.1670000 2
16928 16929 16938 16939 1 180.0000771 15.1670000 2
16930 16929 16938 16936 1 180.0000771 15.1670000 2
16930 16929 16938 16939 1 180.0000771 15.1670000 2
16931 16930 16929 16938 1 180.0000771 15.1670000 2
16932 16930 16929 16938 1 180.0000771 15.1670000 2
16929 16930 16932 16933 1 180.0000771 15.1670000 2
16929 16930 16932 16934 1 180.0000771 15.1670000 2
16931 16930 16932 16933 1 180.0000771 15.1670000 2
16931 16930 16932 16934 1 180.0000771 15.1670000 2
16930 16932 16934 16935 1 180.0000771 15.1670000 2
16930 16932 16934 16936 1 180.0000771 15.1670000 2
16933 16932 16934 16935 1 180.0000771 15.1670000 2
16933 16932 16934 16936 1 180.0000771 15.1670000 2
16930 16934 16932 16933 4 180.0000771 4.6024000 2
16932 16934 16936 16937 1 180.0000771 15.1670000 2
16932 16934 16936 16938 1 180.0000771 15.1670000 2
16935 16934 16936 16937 1 180.0000771 15.1670000 2
16935 16934 16936 16938 1 180.0000771 15.1670000 2
16932 16936 16934 16935 4 180.0000771 4.6024000 2
16929 16936 16938 16939 4 180.0000771 4.6024000 2
16934 16936 16938 16939 1 180.0000771 15.1670000 2
16937 16936 16938 16939 1 180.0000771 15.1670000 2
16929 16938 16936 16934 1 180.0000771 15.1670000 2
16929 16938 16936 16937 1 180.0000771 15.1670000 2
16934 16938 16936 16937 4 180.0000771 4.6024000 2
16942 16943 16944 16945 1 180.0000771 15.1670000 2
16942 16943 16944 16946 1 180.0000771 15.1670000 2
16945 16943 16944 16946 4 180.0000771 4.6024000 2
16942 16943 16952 16944 4 180.0000771 4.6024000 2
16942 16943 16952 16950 1 180.0000771 15.1670000 2
16942 16943 16952 16953 1 180.0000771 15.1670000 2
16944 16943 16952 16950 1 180.0000771 15.1670000 2
16944 16943 16952 16953 1 180.0000771 15.1670000 2
16945 16944 16943 16952 1 180.0000771 15.1670000 2
16946 16944 16943 16952 1 180.0000771 15.1670000 2
16943 16944 16946 16947 1 180.0000771 15.1670000 2
16943 16944 16946 16948 1 180.0000771 15.1670000 2
16945 16944 16946 16947 1 180.0000771 15.1670000 2
16945 16944 16946 16948 1 180.0000771 15.1670000 2
16944 16946 16948 16949 1 180.0000771 15.1670000 2
16944 16946 16948 16950 1 180.0000771 15.1670000 2
16947 16946 16948 16949 1 180.0000771 15.1670000 2
16947 16946 16948 16950 1 180.0000771 15.1670000 2
16944 16948 16946 16947 4 180.0000771 4.6024000 2
16946 16948 16950 16951 1 180.0000771 15.1670000 2
16946 16948 16950 16952 1 180.0000771 15.1670000 2
16949 16948 16950 16951 1 180.0000771 15.1670000 2
16949 16948 16950 16952 1 180.0000771 15.1670000 2
16946 16950 16948 16949 4 180.0000771 4.6024000 2
16943 16950 16952 16953 4 180.0000771 4.6024000 2
16948 16950 16952 16953 1 180.0000771 15.1670000 2
16951 16950 16952 16953 1 180.0000771 15.1670000 2
16943 16952 16950 16948 1 180.0000771 15.1670000 2
16943 16952 16950 16951 1 180.0000771 15.1670000 2
16948 16952 16950 16951 4 180.0000771 4.6024000 2
16956 16957 16958 16959 1 180.0000771 15.1670000 2
16956 16957 16958 16960 1 180.0000771 15.1670000 2
16959 16957 16958 16960 4 180.0000771 4.6024000 2
16956 16957 16966 16958 4 180.0000771 4.6024000 2
16956 16957 16966 16964 1 180.0000771 15.1670000 2
16956 16957 16966 16967 1 180.0000771 15.1670000 2
16958 16957 16966 16964 1 180.0000771 15.1670000 2
16958 16957 16966 16967 1 180.0000771 15.1670000 2
16959 16958 16957 16966 1 180.0000771 15.1670000 2
16960 16958 16957 16966 1 180.0000771 15.1670000 2
16957 16958 16960 16961 1 180.0000771 15.1670000 2
16957 16958 16960 16962 1 180.0000771 15.1670000 2
16959 16958 16960 16961 1 180.0000771 15.1670000 2
16959 16958 16960 16962 1 180.0000771 15.1670000 2
16958 16960 16962 16963 1 180.0000771 15.1670000 2
16958 16960 16962 16964 1 180.0000771 15.1670000 2
16961 16960 16962 16963 1 180.0000771 15.1670000 2
16961 16960 16962 16964 1 180.0000771 15.1670000 2
16958 16962 16960 16961 4 180.0000771 4.6024000 2
16960 16962 16964 16965 1 180.0000771 15.1670000 2
16960 16962 16964 16966 1 180.0000771 15.1670000 2
16963 16962 16964 16965 1 180.0000771 15.1670000 2
16963 16962 16964 16966 1 180.0000771 15.1670000 2
16960 16964 16962 16963 4 180.0000771 4.6024000 2
16957 16964 16966 16967 4 180.0000771 4.6024000 2
16962 16964 16966 16967 1 180.0000771 15.1670000 2
16965 16964 16966 16967 1 180.0000771 15.1670000 2
16957 16966 16964 16962 1 180.0000771 15.1670000 2
16957 16966 16964 16965 1 180.0000771 15.1670000 2
16962 16966 16964 16965 4 180.0000771 4.6024000 2
16970 16971 16972 16973 1 180.0000771 15.1670000 2
16970 16971 16972 16974 1 180.0000771 15.1670000 2
16973 16971 16972 16974 4 180.0000771 4.6024000 2
16970 16971 16980 16972 4 180.0000771 4.6024000 2
16970 16971 16980 16978 1 180.0000771 15.1670000 2
16970 16971 16980 16981 1 180.0000771 15.1670000 2
16972 16971 16980 16978 1 180.0000771 15.1670000 2
16972 16971 16980 16981 1 180.0000771 15.1670000 2
16973 16972 16971 16980 1 180.0000771 15.1670000 2
16974 16972 16971 16980 1 180.0000771 15.1670000 2
16971 16972 16974 16975 1 180.0000771 15.1670000 2
16971 16972 16974 16976 1 180.0000771 15.1670000 2
16973 16972 16974 16975 1 180.0000771 15.1670000 2
16973 16972 16974 16976 1 180.0000771 15.1670000 2
16972 16974 16976 16977 1 180.0000771 15.1670000 2
16972 16974 16976 16978 1 180.0000771 15.1670000 2
16975 16974 16976 16977 1 180.0000771 15.1670000 2
16975 16974 16976 16978 1 180.0000771 15.1670000 2
16972 16976 16974 16975 4 180.0000771 4.6024000 2
16974 16976 16978 16979 1 180.0000771 15.1670000 2
16974 16976 16978 16980 1 180.0000771 15.1670000 2
16977 16976 16978 16979 1 180.0000771 15.1670000 2
16977 16976 16978 16980 1 180.0000771 15.1670000 2
16974 16978 16976 16977 4 180.0000771 4.6024000 2
16971 16978 16980 16981 4 180.0000771 4.6024000 2
16976 16978 16980 16981 1 180.0000771 15.1670000 2
16979 16978 16980 16981 1 180.0000771 15.1670000 2
16971 16980 16978 16976 1 180.0000771 15.1670000 2
16971 16980 16978 16979 1 180.0000771 15.1670000 2
16976 16980 16978 16979 4 180.0000771 4.6024000 2
16984 16985 16986 16987 1 180.0000771 15.1670000 2
16984 16985 16986 16988 1 180.0000771 15.1670000 2
16987 16985 16986 16988 4 180.0000771 4.6024000 2
16984 16985 16994 16986 4 180.0000771 4.6024000 2
16984 16985 16994 16992 1 180.0000771 15.1670000 2
16984 16985 16994 16995 1 180.0000771 15.1670000 2
16986 16985 16994 16992 1 180.0000771 15.1670000 2
16986 16985 16994 16995 1 180.0000771 15.1670000 2
16987 16986 16985 16994 1 180.0000771 15.1670000 2
16988 16986 16985 16994 1 180.0000771 15.1670000 2
16985 16986 16988 16989 1 180.0000771 15.1670000 2
16985 16986 16988 16990 1 180.0000771 15.1670000 2
16987 16986 16988 16989 1 180.0000771 15.1670000 2
16987 16986 16988 16990 1 180.0000771 15.1670000 2
16986 16988 16990 16991 1 180.0000771 15.1670000 2
16986 16988 16990 16992 1 180.0000771 15.1670000 2
16989 16988 16990 16991 1 180.0000771 15.1670000 2
16989 16988 16990 16992 1 180.0000771 15.1670000 2
16986 16990 16988 16989 4 180.0000771 4.6024000 2
16988 16990 16992 16993 1 180.0000771 15.1670000 2
16988 16990 16992 16994 1 180.0000771 15.1670000 2
16991 16990 16992 16993 1 180.0000771 15.1670000 2
16991 16990 16992 16994 1 180.0000771 15.1670000 2
16988 16992 16990 16991 4 180.0000771 4.6024000 2
16985 16992 16994 16995 4 180.0000771 4.6024000 2
16990 16992 16994 16995 1 180.0000771 15.1670000 2
16993 16992 16994 16995 1 180.0000771 15.1670000 2
16985 16994 16992 16990 1 180.0000771 15.1670000 2
16985 16994 16992 16993 1 180.0000771 15.1670000 2
16990 16994 16992 16993 4 180.0000771 4.6024000 2
16998 16999 17000 17001 1 180.0000771 15.1670000 2
16998 16999 17000 17002 1 180.0000771 15.1670000 2
17001 16999 17000 17002 4 180.0000771 4.6024000 2
16998 16999 17008 17000 4 180.0000771 4.6024000 2
16998 16999 17008 17006 1 180.0000771 15.1670000 2
16998 16999 17008 17009 1 180.0000771 15.1670000 2
17000 16999 17008 17006 1 180.0000771 15.1670000 2
17000 16999 17008 17009 1 180.0000771 15.1670000 2
17001 17000 16999 17008 1 180.0000771 15.1670000 2
17002 17000 16999 17008 1 180.0000771 15.1670000 2
16999 17000 17002 17003 1 180.0000771 15.1670000 2
16999 17000 17002 17004 1 180.0000771 15.1670000 2
17001 17000 17002 17003 1 180.0000771 15.1670000 2
17001 17000 17002 17004 1 180.0000771 15.1670000 2
17000 17002 17004 17005 1 180.0000771 15.1670000 2
17000 17002 17004 17006 1 180.0000771 15.1670000 2
17003 17002 17004 17005 1 180.0000771 15.1670000 2
17003 17002 17004 17006 1 180.0000771 15.1670000 2
17000 17004 17002 17003 4 180.0000771 4.6024000 2
17002 17004 17006 17007 1 180.0000771 15.1670000 2
17002 17004 17006 17008 1 180.0000771 15.1670000 2
17005 17004 17006 17007 1 180.0000771 15.1670000 2
17005 17004 17006 17008 1 180.0000771 15.1670000 2
17002 17006 17004 17005 4 180.0000771 4.6024000 2
16999 17006 17008 17009 4 180.0000771 4.6024000 2
17004 17006 17008 17009 1 180.0000771 15.1670000 2
17007 17006 17008 17009 1 180.0000771 15.1670000 2
16999 17008 17006 17004 1 180.0000771 15.1670000 2
16999 17008 17006 17007 1 180.0000771 15.1670000 2
17004 17008 17006 17007 4 180.0000771 4.6024000 2
17012 17013 17014 17015 1 180.0000771 15.1670000 2
17012 17013 17014 17016 1 180.0000771 15.1670000 2
17015 17013 17014 17016 4 180.0000771 4.6024000 2
17012 17013 17022 17014 4 180.0000771 4.6024000 2
17012 17013 17022 17020 1 180.0000771 15.1670000 2
17012 17013 17022 17023 1 180.0000771 15.1670000 2
17014 17013 17022 17020 1 180.0000771 15.1670000 2
17014 17013 17022 17023 1 180.0000771 15.1670000 2
17015 17014 17013 17022 1 180.0000771 15.1670000 2
17016 17014 17013 17022 1 180.0000771 15.1670000 2
17013 17014 17016 17017 1 180.0000771 15.1670000 2
17013 17014 17016 17018 1 180.0000771 15.1670000 2
17015 17014 17016 17017 1 180.0000771 15.1670000 2
17015 17014 17016 17018 1 180.0000771 15.1670000 2
17014 17016 17018 17019 1 180.0000771 15.1670000 2
17014 17016 17018 17020 1 180.0000771 15.1670000 2
17017 17016 17018 17019 1 180.0000771 15.1670000 2
17017 17016 17018 17020 1 180.0000771 15.1670000 2
17014 17018 17016 17017 4 180.0000771 4.6024000 2
17016 17018 17020 17021 1 180.0000771 15.1670000 2
17016 17018 17020 17022 1 180.0000771 15.1670000 2
17019 17018 17020 17021 1 180.0000771 15.1670000 2
17019 17018 17020 17022 1 180.0000771 15.1670000 2
17016 17020 17018 17019 4 180.0000771 4.6024000 2
17013 17020 17022 17023 4 180.0000771 4.6024000 2
17018 17020 17022 17023 1 180.0000771 15.1670000 2
17021 17020 17022 17023 1 180.0000771 15.1670000 2
17013 17022 17020 17018 1 180.0000771 15.1670000 2
17013 17022 17020 17021 1 180.0000771 15.1670000 2
17018 17022 17020 17021 4 180.0000771 4.6024000 2
17026 17027 17028 17029 1 180.0000771 15.1670000 2
17026 17027 17028 17030 1 180.0000771 15.1670000 2
17029 17027 17028 17030 4 180.0000771 4.6024000 2
17026 17027 17036 17028 4 180.0000771 4.6024000 2
17026 17027 17036 17034 1 180.0000771 15.1670000 2
17026 17027 17036 17037 1 180.0000771 15.1670000 2
17028 17027 17036 17034 1 180.0000771 15.1670000 2
17028 17027 17036 17037 1 180.0000771 15.1670000 2
17029 17028 17027 17036 1 180.0000771 15.1670000 2
17030 17028 17027 17036 1 180.0000771 15.1670000 2
17027 17028 17030 17031 1 180.0000771 15.1670000 2
17027 17028 17030 17032 1 180.0000771 15.1670000 2
17029 17028 17030 17031 1 180.0000771 15.1670000 2
17029 17028 17030 17032 1 180.0000771 15.1670000 2
17028 17030 17032 17033 1 180.0000771 15.1670000 2
17028 17030 17032 17034 1 180.0000771 15.1670000 2
17031 17030 17032 17033 1 180.0000771 15.1670000 2
17031 17030 17032 17034 1 180.0000771 15.1670000 2
17028 17032 17030 17031 4 180.0000771 4.6024000 2
17030 17032 17034 17035 1 180.0000771 15.1670000 2
17030 17032 17034 17036 1 180.0000771 15.1670000 2
17033 17032 17034 17035 1 180.0000771 15.1670000 2
17033 17032 17034 17036 1 180.0000771 15.1670000 2
17030 17034 17032 17033 4 180.0000771 4.6024000 2
17027 17034 17036 17037 4 180.0000771 4.6024000 2
17032 17034 17036 17037 1 180.0000771 15.1670000 2
17035 17034 17036 17037 1 180.0000771 15.1670000 2
17027 17036 17034 17032 1 180.0000771 15.1670000 2
17027 17036 17034 17035 1 180.0000771 15.1670000 2
17032 17036 17034 17035 4 180.0000771 4.6024000 2
17040 17041 17042 17043 1 180.0000771 15.1670000 2
17040 17041 17042 17044 1 180.0000771 15.1670000 2
17043 17041 17042 17044 4 180.0000771 4.6024000 2
17040 17041 17050 17042 4 180.0000771 4.6024000 2
17040 17041 17050 17048 1 180.0000771 15.1670000 2
17040 17041 17050 17051 1 180.0000771 15.1670000 2
17042 17041 17050 17048 1 180.0000771 15.1670000 2
17042 17041 17050 17051 1 180.0000771 15.1670000 2
17043 17042 17041 17050 1 180.0000771 15.1670000 2
17044 17042 17041 17050 1 180.0000771 15.1670000 2
17041 17042 17044 17045 1 180.0000771 15.1670000 2
17041 17042 17044 17046 1 180.0000771 15.1670000 2
17043 17042 17044 17045 1 180.0000771 15.1670000 2
17043 17042 17044 17046 1 180.0000771 15.1670000 2
17042 17044 17046 17047 1 180.0000771 15.1670000 2
17042 17044 17046 17048 1 180.0000771 15.1670000 2
17045 17044 17046 17047 1 180.0000771 15.1670000 2
17045 17044 17046 17048 1 180.0000771 15.1670000 2
17042 17046 17044 17045 4 180.0000771 4.6024000 2
17044 17046 17048 17049 1 180.0000771 15.1670000 2
17044 17046 17048 17050 1 180.0000771 15.1670000 2
17047 17046 17048 17049 1 180.0000771 15.1670000 2
17047 17046 17048 17050 1 180.0000771 15.1670000 2
17044 17048 17046 17047 4 180.0000771 4.6024000 2
17041 17048 17050 17051 4 180.0000771 4.6024000 2
17046 17048 17050 17051 1 180.0000771 15.1670000 2
17049 17048 17050 17051 1 180.0000771 15.1670000 2
17041 17050 17048 17046 1 180.0000771 15.1670000 2
17041 17050 17048 17049 1 180.0000771 15.1670000 2
17046 17050 17048 17049 4 180.0000771 4.6024000 2
17054 17055 17056 17057 1 180.0000771 15.1670000 2
17054 17055 17056 17058 1 180.0000771 15.1670000 2
17057 17055 17056 17058 4 180.0000771 4.6024000 2
17054 17055 17064 17056 4 180.0000771 4.6024000 2
17054 17055 17064 17062 1 180.0000771 15.1670000 2
17054 17055 17064 17065 1 180.0000771 15.1670000 2
17056 17055 17064 17062 1 180.0000771 15.1670000 2
17056 17055 17064 17065 1 180.0000771 15.1670000 2
17057 17056 17055 17064 1 180.0000771 15.1670000 2
17058 17056 17055 17064 1 180.0000771 15.1670000 2
17055 17056 17058 17059 1 180.0000771 15.1670000 2
17055 17056 17058 17060 1 180.0000771 15.1670000 2
17057 17056 17058 17059 1 180.0000771 15.1670000 2
17057 17056 17058 17060 1 180.0000771 15.1670000 2
17056 17058 17060 17061 1 180.0000771 15.1670000 2
17056 17058 17060 17062 1 180.0000771 15.1670000 2
17059 17058 17060 17061 1 180.0000771 15.1670000 2
17059 17058 17060 17062 1 180.0000771 15.1670000 2
17056 17060 17058 17059 4 180.0000771 4.6024000 2
17058 17060 17062 17063 1 180.0000771 15.1670000 2
17058 17060 17062 17064 1 180.0000771 15.1670000 2
17061 17060 17062 17063 1 180.0000771 15.1670000 2
17061 17060 17062 17064 1 180.0000771 15.1670000 2
17058 17062 17060 17061 4 180.0000771 4.6024000 2
17055 17062 17064 17065 4 180.0000771 4.6024000 2
17060 17062 17064 17065 1 180.0000771 15.1670000 2
17063 17062 17064 17065 1 180.0000771 15.1670000 2
17055 17064 17062 17060 1 180.0000771 15.1670000 2
17055 17064 17062 17063 1 180.0000771 15.1670000 2
17060 17064 17062 17063 4 180.0000771 4.6024000 2
17068 17069 17070 17071 1 180.0000771 15.1670000 2
17068 17069 17070 17072 1 180.0000771 15.1670000 2
17071 17069 17070 17072 4 180.0000771 4.6024000 2
17068 17069 17078 17070 4 180.0000771 4.6024000 2
17068 17069 17078 17076 1 180.0000771 15.1670000 2
17068 17069 17078 17079 1 180.0000771 15.1670000 2
17070 17069 17078 17076 1 180.0000771 15.1670000 2
17070 17069 17078 17079 1 180.0000771 15.1670000 2
17071 17070 17069 17078 1 180.0000771 15.1670000 2
17072 17070 17069 17078 1 180.0000771 15.1670000 2
17069 17070 17072 17073 1 180.0000771 15.1670000 2
17069 17070 17072 17074 1 180.0000771 15.1670000 2
17071 17070 17072 17073 1 180.0000771 15.1670000 2
17071 17070 17072 17074 1 180.0000771 15.1670000 2
17070 17072 17074 17075 1 180.0000771 15.1670000 2
17070 17072 17074 17076 1 180.0000771 15.1670000 2
17073 17072 17074 17075 1 180.0000771 15.1670000 2
17073 17072 17074 17076 1 180.0000771 15.1670000 2
17070 17074 17072 17073 4 180.0000771 4.6024000 2
17072 17074 17076 17077 1 180.0000771 15.1670000 2
17072 17074 17076 17078 1 180.0000771 15.1670000 2
17075 17074 17076 17077 1 180.0000771 15.1670000 2
17075 17074 17076 17078 1 180.0000771 15.1670000 2
17072 17076 17074 17075 4 180.0000771 4.6024000 2
17069 17076 17078 17079 4 180.0000771 4.6024000 2
17074 17076 17078 17079 1 180.0000771 15.1670000 2
17077 17076 17078 17079 1 180.0000771 15.1670000 2
17069 17078 17076 17074 1 180.0000771 15.1670000 2
17069 17078 17076 17077 1 180.0000771 15.1670000 2
17074 17078 17076 17077 4 180.0000771 4.6024000 2
17082 17083 17084 17085 1 180.0000771 15.1670000 2
17082 17083 17084 17086 1 180.0000771 15.1670000 2
17085 17083 17084 17086 4 180.0000771 4.6024000 2
17082 17083 17092 17084 4 180.0000771 4.6024000 2
17082 17083 17092 17090 1 180.0000771 15.1670000 2
17082 17083 17092 17093 1 180.0000771 15.1670000 2
17084 17083 17092 17090 1 180.0000771 15.1670000 2
17084 17083 17092 17093 1 180.0000771 15.1670000 2
17085 17084 17083 17092 1 180.0000771 15.1670000 2
17086 17084 17083 17092 1 180.0000771 15.1670000 2
17083 17084 17086 17087 1 180.0000771 15.1670000 2
17083 17084 17086 17088 1 180.0000771 15.1670000 2
17085 17084 17086 17087 1 180.0000771 15.1670000 2
17085 17084 17086 17088 1 180.0000771 15.1670000 2
17084 17086 17088 17089 1 180.0000771 15.1670000 2
17084 17086 17088 17090 1 180.0000771 15.1670000 2
17087 17086 17088 17089 1 180.0000771 15.1670000 2
17087 17086 17088 17090 1 180.0000771 15.1670000 2
17084 17088 17086 17087 4 180.0000771 4.6024000 2
17086 17088 17090 17091 1 180.0000771 15.1670000 2
17086 17088 17090 17092 1 180.0000771 15.1670000 2
17089 17088 17090 17091 1 180.0000771 15.1670000 2
17089 17088 17090 17092 1 180.0000771 15.1670000 2
17086 17090 17088 17089 4 180.0000771 4.6024000 2
17083 17090 17092 17093 4 180.0000771 4.6024000 2
17088 17090 17092 17093 1 180.0000771 15.1670000 2
17091 17090 17092 17093 1 180.0000771 15.1670000 2
17083 17092 17090 17088 1 180.0000771 15.1670000 2
17083 17092 17090 17091 1 180.0000771 15.1670000 2
17088 17092 17090 17091 4 180.0000771 4.6024000 2
17096 17097 17098 17099 1 180.0000771 15.1670000 2
17096 17097 17098 17100 1 180.0000771 15.1670000 2
17099 17097 17098 17100 4 180.0000771 4.6024000 2
17096 17097 17106 17098 4 180.0000771 4.6024000 2
17096 17097 17106 17104 1 180.0000771 15.1670000 2
17096 17097 17106 17107 1 180.0000771 15.1670000 2
17098 17097 17106 17104 1 180.0000771 15.1670000 2
17098 17097 17106 17107 1 180.0000771 15.1670000 2
17099 17098 17097 17106 1 180.0000771 15.1670000 2
17100 17098 17097 17106 1 180.0000771 15.1670000 2
17097 17098 17100 17101 1 180.0000771 15.1670000 2
17097 17098 17100 17102 1 180.0000771 15.1670000 2
17099 17098 17100 17101 1 180.0000771 15.1670000 2
17099 17098 17100 17102 1 180.0000771 15.1670000 2
17098 17100 17102 17103 1 180.0000771 15.1670000 2
17098 17100 17102 17104 1 180.0000771 15.1670000 2
17101 17100 17102 17103 1 180.0000771 15.1670000 2
17101 17100 17102 17104 1 180.0000771 15.1670000 2
17098 17102 17100 17101 4 180.0000771 4.6024000 2
17100 17102 17104 17105 1 180.0000771 15.1670000 2
17100 17102 17104 17106 1 180.0000771 15.1670000 2
17103 17102 17104 17105 1 180.0000771 15.1670000 2
17103 17102 17104 17106 1 180.0000771 15.1670000 2
17100 17104 17102 17103 4 180.0000771 4.6024000 2
17097 17104 17106 17107 4 180.0000771 4.6024000 2
17102 17104 17106 17107 1 180.0000771 15.1670000 2
17105 17104 17106 17107 1 180.0000771 15.1670000 2
17097 17106 17104 17102 1 180.0000771 15.1670000 2
17097 17106 17104 17105 1 180.0000771 15.1670000 2
17102 17106 17104 17105 4 180.0000771 4.6024000 2
17110 17111 17112 17113 1 180.0000771 15.1670000 2
17110 17111 17112 17114 1 180.0000771 15.1670000 2
17113 17111 17112 17114 4 180.0000771 4.6024000 2
17110 17111 17120 17112 4 180.0000771 4.6024000 2
17110 17111 17120 17118 1 180.0000771 15.1670000 2
17110 17111 17120 17121 1 180.0000771 15.1670000 2
17112 17111 17120 17118 1 180.0000771 15.1670000 2
17112 17111 17120 17121 1 180.0000771 15.1670000 2
17113 17112 17111 17120 1 180.0000771 15.1670000 2
17114 17112 17111 17120 1 180.0000771 15.1670000 2
17111 17112 17114 17115 1 180.0000771 15.1670000 2
17111 17112 17114 17116 1 180.0000771 15.1670000 2
17113 17112 17114 17115 1 180.0000771 15.1670000 2
17113 17112 17114 17116 1 180.0000771 15.1670000 2
17112 17114 17116 17117 1 180.0000771 15.1670000 2
17112 17114 17116 17118 1 180.0000771 15.1670000 2
17115 17114 17116 17117 1 180.0000771 15.1670000 2
17115 17114 17116 17118 1 180.0000771 15.1670000 2
17112 17116 17114 17115 4 180.0000771 4.6024000 2
17114 17116 17118 17119 1 180.0000771 15.1670000 2
17114 17116 17118 17120 1 180.0000771 15.1670000 2
17117 17116 17118 17119 1 180.0000771 15.1670000 2
17117 17116 17118 17120 1 180.0000771 15.1670000 2
17114 17118 17116 17117 4 180.0000771 4.6024000 2
17111 17118 17120 17121 4 180.0000771 4.6024000 2
17116 17118 17120 17121 1 180.0000771 15.1670000 2
17119 17118 17120 17121 1 180.0000771 15.1670000 2
17111 17120 17118 17116 1 180.0000771 15.1670000 2
17111 17120 17118 17119 1 180.0000771 15.1670000 2
17116 17120 17118 17119 4 180.0000771 4.6024000 2
17124 17125 17126 17127 1 180.0000771 15.1670000 2
17124 17125 17126 17128 1 180.0000771 15.1670000 2
17127 17125 17126 17128 4 180.0000771 4.6024000 2
17124 17125 17134 17126 4 180.0000771 4.6024000 2
17124 17125 17134 17132 1 180.0000771 15.1670000 2
17124 17125 17134 17135 1 180.0000771 15.1670000 2
17126 17125 17134 17132 1 180.0000771 15.1670000 2
17126 17125 17134 17135 1 180.0000771 15.1670000 2
17127 17126 17125 17134 1 180.0000771 15.1670000 2
17128 17126 17125 17134 1 180.0000771 15.1670000 2
17125 17126 17128 17129 1 180.0000771 15.1670000 2
17125 17126 17128 17130 1 180.0000771 15.1670000 2
17127 17126 17128 17129 1 180.0000771 15.1670000 2
17127 17126 17128 17130 1 180.0000771 15.1670000 2
17126 17128 17130 17131 1 180.0000771 15.1670000 2
17126 17128 17130 17132 1 180.0000771 15.1670000 2
17129 17128 17130 17131 1 180.0000771 15.1670000 2
17129 17128 17130 17132 1 180.0000771 15.1670000 2
17126 17130 17128 17129 4 180.0000771 4.6024000 2
17128 17130 17132 17133 1 180.0000771 15.1670000 2
17128 17130 17132 17134 1 180.0000771 15.1670000 2
17131 17130 17132 17133 1 180.0000771 15.1670000 2
17131 17130 17132 17134 1 180.0000771 15.1670000 2
17128 17132 17130 17131 4 180.0000771 4.6024000 2
17125 17132 17134 17135 4 180.0000771 4.6024000 2
17130 17132 17134 17135 1 180.0000771 15.1670000 2
17133 17132 17134 17135 1 180.0000771 15.1670000 2
17125 17134 17132 17130 1 180.0000771 15.1670000 2
17125 17134 17132 17133 1 180.0000771 15.1670000 2
17130 17134 17132 17133 4 180.0000771 4.6024000 2
17138 17139 17140 17141 1 180.0000771 15.1670000 2
17138 17139 17140 17142 1 180.0000771 15.1670000 2
17141 17139 17140 17142 4 180.0000771 4.6024000 2
17138 17139 17148 17140 4 180.0000771 4.6024000 2
17138 17139 17148 17146 1 180.0000771 15.1670000 2
17138 17139 17148 17149 1 180.0000771 15.1670000 2
17140 17139 17148 17146 1 180.0000771 15.1670000 2
17140 17139 17148 17149 1 180.0000771 15.1670000 2
17141 17140 17139 17148 1 180.0000771 15.1670000 2
17142 17140 17139 17148 1 180.0000771 15.1670000 2
17139 17140 17142 17143 1 180.0000771 15.1670000 2
17139 17140 17142 17144 1 180.0000771 15.1670000 2
17141 17140 17142 17143 1 180.0000771 15.1670000 2
17141 17140 17142 17144 1 180.0000771 15.1670000 2
17140 17142 17144 17145 1 180.0000771 15.1670000 2
17140 17142 17144 17146 1 180.0000771 15.1670000 2
17143 17142 17144 17145 1 180.0000771 15.1670000 2
17143 17142 17144 17146 1 180.0000771 15.1670000 2
17140 17144 17142 17143 4 180.0000771 4.6024000 2
17142 17144 17146 17147 1 180.0000771 15.1670000 2
17142 17144 17146 17148 1 180.0000771 15.1670000 2
17145 17144 17146 17147 1 180.0000771 15.1670000 2
17145 17144 17146 17148 1 180.0000771 15.1670000 2
17142 17146 17144 17145 4 180.0000771 4.6024000 2
17139 17146 17148 17149 4 180.0000771 4.6024000 2
17144 17146 17148 17149 1 180.0000771 15.1670000 2
17147 17146 17148 17149 1 180.0000771 15.1670000 2
17139 17148 17146 17144 1 180.0000771 15.1670000 2
17139 17148 17146 17147 1 180.0000771 15.1670000 2
17144 17148 17146 17147 4 180.0000771 4.6024000 2
17152 17153 17154 17155 1 180.0000771 15.1670000 2
17152 17153 17154 17156 1 180.0000771 15.1670000 2
17155 17153 17154 17156 4 180.0000771 4.6024000 2
17152 17153 17162 17154 4 180.0000771 4.6024000 2
17152 17153 17162 17160 1 180.0000771 15.1670000 2
17152 17153 17162 17163 1 180.0000771 15.1670000 2
17154 17153 17162 17160 1 180.0000771 15.1670000 2
17154 17153 17162 17163 1 180.0000771 15.1670000 2
17155 17154 17153 17162 1 180.0000771 15.1670000 2
17156 17154 17153 17162 1 180.0000771 15.1670000 2
17153 17154 17156 17157 1 180.0000771 15.1670000 2
17153 17154 17156 17158 1 180.0000771 15.1670000 2
17155 17154 17156 17157 1 180.0000771 15.1670000 2
17155 17154 17156 17158 1 180.0000771 15.1670000 2
17154 17156 17158 17159 1 180.0000771 15.1670000 2
17154 17156 17158 17160 1 180.0000771 15.1670000 2
17157 17156 17158 17159 1 180.0000771 15.1670000 2
17157 17156 17158 17160 1 180.0000771 15.1670000 2
17154 17158 17156 17157 4 180.0000771 4.6024000 2
17156 17158 17160 17161 1 180.0000771 15.1670000 2
17156 17158 17160 17162 1 180.0000771 15.1670000 2
17159 17158 17160 17161 1 180.0000771 15.1670000 2
17159 17158 17160 17162 1 180.0000771 15.1670000 2
17156 17160 17158 17159 4 180.0000771 4.6024000 2
17153 17160 17162 17163 4 180.0000771 4.6024000 2
17158 17160 17162 17163 1 180.0000771 15.1670000 2
17161 17160 17162 17163 1 180.0000771 15.1670000 2
17153 17162 17160 17158 1 180.0000771 15.1670000 2
17153 17162 17160 17161 1 180.0000771 15.1670000 2
17158 17162 17160 17161 4 180.0000771 4.6024000 2
17166 17167 17168 17169 1 180.0000771 15.1670000 2
17166 17167 17168 17170 1 180.0000771 15.1670000 2
17169 17167 17168 17170 4 180.0000771 4.6024000 2
17166 17167 17176 17168 4 180.0000771 4.6024000 2
17166 17167 17176 17174 1 180.0000771 15.1670000 2
17166 17167 17176 17177 1 180.0000771 15.1670000 2
17168 17167 17176 17174 1 180.0000771 15.1670000 2
17168 17167 17176 17177 1 180.0000771 15.1670000 2
17169 17168 17167 17176 1 180.0000771 15.1670000 2
17170 17168 17167 17176 1 180.0000771 15.1670000 2
17167 17168 17170 17171 1 180.0000771 15.1670000 2
17167 17168 17170 17172 1 180.0000771 15.1670000 2
17169 17168 17170 17171 1 180.0000771 15.1670000 2
17169 17168 17170 17172 1 180.0000771 15.1670000 2
17168 17170 17172 17173 1 180.0000771 15.1670000 2
17168 17170 17172 17174 1 180.0000771 15.1670000 2
17171 17170 17172 17173 1 180.0000771 15.1670000 2
17171 17170 17172 17174 1 180.0000771 15.1670000 2
17168 17172 17170 17171 4 180.0000771 4.6024000 2
17170 17172 17174 17175 1 180.0000771 15.1670000 2
17170 17172 17174 17176 1 180.0000771 15.1670000 2
17173 17172 17174 17175 1 180.0000771 15.1670000 2
17173 17172 17174 17176 1 180.0000771 15.1670000 2
17170 17174 17172 17173 4 180.0000771 4.6024000 2
17167 17174 17176 17177 4 180.0000771 4.6024000 2
17172 17174 17176 17177 1 180.0000771 15.1670000 2
17175 17174 17176 17177 1 180.0000771 15.1670000 2
17167 17176 17174 17172 1 180.0000771 15.1670000 2
17167 17176 17174 17175 1 180.0000771 15.1670000 2
17172 17176 17174 17175 4 180.0000771 4.6024000 2
17180 17181 17182 17183 1 180.0000771 15.1670000 2
17180 17181 17182 17184 1 180.0000771 15.1670000 2
17183 17181 17182 17184 4 180.0000771 4.6024000 2
17180 17181 17190 17182 4 180.0000771 4.6024000 2
17180 17181 17190 17188 1 180.0000771 15.1670000 2
17180 17181 17190 17191 1 180.0000771 15.1670000 2
17182 17181 17190 17188 1 180.0000771 15.1670000 2
17182 17181 17190 17191 1 180.0000771 15.1670000 2
17183 17182 17181 17190 1 180.0000771 15.1670000 2
17184 17182 17181 17190 1 180.0000771 15.1670000 2
17181 17182 17184 17185 1 180.0000771 15.1670000 2
17181 17182 17184 17186 1 180.0000771 15.1670000 2
17183 17182 17184 17185 1 180.0000771 15.1670000 2
17183 17182 17184 17186 1 180.0000771 15.1670000 2
17182 17184 17186 17187 1 180.0000771 15.1670000 2
17182 17184 17186 17188 1 180.0000771 15.1670000 2
17185 17184 17186 17187 1 180.0000771 15.1670000 2
17185 17184 17186 17188 1 180.0000771 15.1670000 2
17182 17186 17184 17185 4 180.0000771 4.6024000 2
17184 17186 17188 17189 1 180.0000771 15.1670000 2
17184 17186 17188 17190 1 180.0000771 15.1670000 2
17187 17186 17188 17189 1 180.0000771 15.1670000 2
17187 17186 17188 17190 1 180.0000771 15.1670000 2
17184 17188 17186 17187 4 180.0000771 4.6024000 2
17181 17188 17190 17191 4 180.0000771 4.6024000 2
17186 17188 17190 17191 1 180.0000771 15.1670000 2
17189 17188 17190 17191 1 180.0000771 15.1670000 2
17181 17190 17188 17186 1 180.0000771 15.1670000 2
17181 17190 17188 17189 1 180.0000771 15.1670000 2
17186 17190 17188 17189 4 180.0000771 4.6024000 2
17194 17195 17196 17197 1 180.0000771 15.1670000 2
17194 17195 17196 17198 1 180.0000771 15.1670000 2
17197 17195 17196 17198 4 180.0000771 4.6024000 2
17194 17195 17204 17196 4 180.0000771 4.6024000 2
17194 17195 17204 17202 1 180.0000771 15.1670000 2
17194 17195 17204 17205 1 180.0000771 15.1670000 2
17196 17195 17204 17202 1 180.0000771 15.1670000 2
17196 17195 17204 17205 1 180.0000771 15.1670000 2
17197 17196 17195 17204 1 180.0000771 15.1670000 2
17198 17196 17195 17204 1 180.0000771 15.1670000 2
17195 17196 17198 17199 1 180.0000771 15.1670000 2
17195 17196 17198 17200 1 180.0000771 15.1670000 2
17197 17196 17198 17199 1 180.0000771 15.1670000 2
17197 17196 17198 17200 1 180.0000771 15.1670000 2
17196 17198 17200 17201 1 180.0000771 15.1670000 2
17196 17198 17200 17202 1 180.0000771 15.1670000 2
17199 17198 17200 17201 1 180.0000771 15.1670000 2
17199 17198 17200 17202 1 180.0000771 15.1670000 2
17196 17200 17198 17199 4 180.0000771 4.6024000 2
17198 17200 17202 17203 1 180.0000771 15.1670000 2
17198 17200 17202 17204 1 180.0000771 15.1670000 2
17201 17200 17202 17203 1 180.0000771 15.1670000 2
17201 17200 17202 17204 1 180.0000771 15.1670000 2
17198 17202 17200 17201 4 180.0000771 4.6024000 2
17195 17202 17204 17205 4 180.0000771 4.6024000 2
17200 17202 17204 17205 1 180.0000771 15.1670000 2
17203 17202 17204 17205 1 180.0000771 15.1670000 2
17195 17204 17202 17200 1 180.0000771 15.1670000 2
17195 17204 17202 17203 1 180.0000771 15.1670000 2
17200 17204 17202 17203 4 180.0000771 4.6024000 2
17208 17209 17210 17211 1 180.0000771 15.1670000 2
17208 17209 17210 17212 1 180.0000771 15.1670000 2
17211 17209 17210 17212 4 180.0000771 4.6024000 2
17208 17209 17218 17210 4 180.0000771 4.6024000 2
17208 17209 17218 17216 1 180.0000771 15.1670000 2
17208 17209 17218 17219 1 180.0000771 15.1670000 2
17210 17209 17218 17216 1 180.0000771 15.1670000 2
17210 17209 17218 17219 1 180.0000771 15.1670000 2
17211 17210 17209 17218 1 180.0000771 15.1670000 2
17212 17210 17209 17218 1 180.0000771 15.1670000 2
17209 17210 17212 17213 1 180.0000771 15.1670000 2
17209 17210 17212 17214 1 180.0000771 15.1670000 2
17211 17210 17212 17213 1 180.0000771 15.1670000 2
17211 17210 17212 17214 1 180.0000771 15.1670000 2
17210 17212 17214 17215 1 180.0000771 15.1670000 2
17210 17212 17214 17216 1 180.0000771 15.1670000 2
17213 17212 17214 17215 1 180.0000771 15.1670000 2
17213 17212 17214 17216 1 180.0000771 15.1670000 2
17210 17214 17212 17213 4 180.0000771 4.6024000 2
17212 17214 17216 17217 1 180.0000771 15.1670000 2
17212 17214 17216 17218 1 180.0000771 15.1670000 2
17215 17214 17216 17217 1 180.0000771 15.1670000 2
17215 17214 17216 17218 1 180.0000771 15.1670000 2
17212 17216 17214 17215 4 180.0000771 4.6024000 2
17209 17216 17218 17219 4 180.0000771 4.6024000 2
17214 17216 17218 17219 1 180.0000771 15.1670000 2
17217 17216 17218 17219 1 180.0000771 15.1670000 2
17209 17218 17216 17214 1 180.0000771 15.1670000 2
17209 17218 17216 17217 1 180.0000771 15.1670000 2
17214 17218 17216 17217 4 180.0000771 4.6024000 2
17222 17223 17224 17225 1 180.0000771 15.1670000 2
17222 17223 17224 17226 1 180.0000771 15.1670000 2
17225 17223 17224 17226 4 180.0000771 4.6024000 2
17222 17223 17232 17224 4 180.0000771 4.6024000 2
17222 17223 17232 17230 1 180.0000771 15.1670000 2
17222 17223 17232 17233 1 180.0000771 15.1670000 2
17224 17223 17232 17230 1 180.0000771 15.1670000 2
17224 17223 17232 17233 1 180.0000771 15.1670000 2
17225 17224 17223 17232 1 180.0000771 15.1670000 2
17226 17224 17223 17232 1 180.0000771 15.1670000 2
17223 17224 17226 17227 1 180.0000771 15.1670000 2
17223 17224 17226 17228 1 180.0000771 15.1670000 2
17225 17224 17226 17227 1 180.0000771 15.1670000 2
17225 17224 17226 17228 1 180.0000771 15.1670000 2
17224 17226 17228 17229 1 180.0000771 15.1670000 2
17224 17226 17228 17230 1 180.0000771 15.1670000 2
17227 17226 17228 17229 1 180.0000771 15.1670000 2
17227 17226 17228 17230 1 180.0000771 15.1670000 2
17224 17228 17226 17227 4 180.0000771 4.6024000 2
17226 17228 17230 17231 1 180.0000771 15.1670000 2
17226 17228 17230 17232 1 180.0000771 15.1670000 2
17229 17228 17230 17231 1 180.0000771 15.1670000 2
17229 17228 17230 17232 1 180.0000771 15.1670000 2
17226 17230 17228 17229 4 180.0000771 4.6024000 2
17223 17230 17232 17233 4 180.0000771 4.6024000 2
17228 17230 17232 17233 1 180.0000771 15.1670000 2
17231 17230 17232 17233 1 180.0000771 15.1670000 2
17223 17232 17230 17228 1 180.0000771 15.1670000 2
17223 17232 17230 17231 1 180.0000771 15.1670000 2
17228 17232 17230 17231 4 180.0000771 4.6024000 2
17236 17237 17238 17239 1 180.0000771 15.1670000 2
17236 17237 17238 17240 1 180.0000771 15.1670000 2
17239 17237 17238 17240 4 180.0000771 4.6024000 2
17236 17237 17246 17238 4 180.0000771 4.6024000 2
17236 17237 17246 17244 1 180.0000771 15.1670000 2
17236 17237 17246 17247 1 180.0000771 15.1670000 2
17238 17237 17246 17244 1 180.0000771 15.1670000 2
17238 17237 17246 17247 1 180.0000771 15.1670000 2
17239 17238 17237 17246 1 180.0000771 15.1670000 2
17240 17238 17237 17246 1 180.0000771 15.1670000 2
17237 17238 17240 17241 1 180.0000771 15.1670000 2
17237 17238 17240 17242 1 180.0000771 15.1670000 2
17239 17238 17240 17241 1 180.0000771 15.1670000 2
17239 17238 17240 17242 1 180.0000771 15.1670000 2
17238 17240 17242 17243 1 180.0000771 15.1670000 2
17238 17240 17242 17244 1 180.0000771 15.1670000 2
17241 17240 17242 17243 1 180.0000771 15.1670000 2
17241 17240 17242 17244 1 180.0000771 15.1670000 2
17238 17242 17240 17241 4 180.0000771 4.6024000 2
17240 17242 17244 17245 1 180.0000771 15.1670000 2
17240 17242 17244 17246 1 180.0000771 15.1670000 2
17243 17242 17244 17245 1 180.0000771 15.1670000 2
17243 17242 17244 17246 1 180.0000771 15.1670000 2
17240 17244 17242 17243 4 180.0000771 4.6024000 2
17237 17244 17246 17247 4 180.0000771 4.6024000 2
17242 17244 17246 17247 1 180.0000771 15.1670000 2
17245 17244 17246 17247 1 180.0000771 15.1670000 2
17237 17246 17244 17242 1 180.0000771 15.1670000 2
17237 17246 17244 17245 1 180.0000771 15.1670000 2
17242 17246 17244 17245 4 180.0000771 4.6024000 2
17250 17251 17252 17253 1 180.0000771 15.1670000 2
17250 17251 17252 17254 1 180.0000771 15.1670000 2
17253 17251 17252 17254 4 180.0000771 4.6024000 2
17250 17251 17260 17252 4 180.0000771 4.6024000 2
17250 17251 17260 17258 1 180.0000771 15.1670000 2
17250 17251 17260 17261 1 180.0000771 15.1670000 2
17252 17251 17260 17258 1 180.0000771 15.1670000 2
17252 17251 17260 17261 1 180.0000771 15.1670000 2
17253 17252 17251 17260 1 180.0000771 15.1670000 2
17254 17252 17251 17260 1 180.0000771 15.1670000 2
17251 17252 17254 17255 1 180.0000771 15.1670000 2
17251 17252 17254 17256 1 180.0000771 15.1670000 2
17253 17252 17254 17255 1 180.0000771 15.1670000 2
17253 17252 17254 17256 1 180.0000771 15.1670000 2
17252 17254 17256 17257 1 180.0000771 15.1670000 2
17252 17254 17256 17258 1 180.0000771 15.1670000 2
17255 17254 17256 17257 1 180.0000771 15.1670000 2
17255 17254 17256 17258 1 180.0000771 15.1670000 2
17252 17256 17254 17255 4 180.0000771 4.6024000 2
17254 17256 17258 17259 1 180.0000771 15.1670000 2
17254 17256 17258 17260 1 180.0000771 15.1670000 2
17257 17256 17258 17259 1 180.0000771 15.1670000 2
17257 17256 17258 17260 1 180.0000771 15.1670000 2
17254 17258 17256 17257 4 180.0000771 4.6024000 2
17251 17258 17260 17261 4 180.0000771 4.6024000 2
17256 17258 17260 17261 1 180.0000771 15.1670000 2
17259 17258 17260 17261 1 180.0000771 15.1670000 2
17251 17260 17258 17256 1 180.0000771 15.1670000 2
17251 17260 17258 17259 1 180.0000771 15.1670000 2
17256 17260 17258 17259 4 180.0000771 4.6024000 2
17264 17265 17266 17267 1 180.0000771 15.1670000 2
17264 17265 17266 17268 1 180.0000771 15.1670000 2
17267 17265 17266 17268 4 180.0000771 4.6024000 2
17264 17265 17274 17266 4 180.0000771 4.6024000 2
17264 17265 17274 17272 1 180.0000771 15.1670000 2
17264 17265 17274 17275 1 180.0000771 15.1670000 2
17266 17265 17274 17272 1 180.0000771 15.1670000 2
17266 17265 17274 17275 1 180.0000771 15.1670000 2
17267 17266 17265 17274 1 180.0000771 15.1670000 2
17268 17266 17265 17274 1 180.0000771 15.1670000 2
17265 17266 17268 17269 1 180.0000771 15.1670000 2
17265 17266 17268 17270 1 180.0000771 15.1670000 2
17267 17266 17268 17269 1 180.0000771 15.1670000 2
17267 17266 17268 17270 1 180.0000771 15.1670000 2
17266 17268 17270 17271 1 180.0000771 15.1670000 2
17266 17268 17270 17272 1 180.0000771 15.1670000 2
17269 17268 17270 17271 1 180.0000771 15.1670000 2
17269 17268 17270 17272 1 180.0000771 15.1670000 2
17266 17270 17268 17269 4 180.0000771 4.6024000 2
17268 17270 17272 17273 1 180.0000771 15.1670000 2
17268 17270 17272 17274 1 180.0000771 15.1670000 2
17271 17270 17272 17273 1 180.0000771 15.1670000 2
17271 17270 17272 17274 1 180.0000771 15.1670000 2
17268 17272 17270 17271 4 180.0000771 4.6024000 2
17265 17272 17274 17275 4 180.0000771 4.6024000 2
17270 17272 17274 17275 1 180.0000771 15.1670000 2
17273 17272 17274 17275 1 180.0000771 15.1670000 2
17265 17274 17272 17270 1 180.0000771 15.1670000 2
17265 17274 17272 17273 1 180.0000771 15.1670000 2
17270 17274 17272 17273 4 180.0000771 4.6024000 2
17278 17279 17280 17281 1 180.0000771 15.1670000 2
17278 17279 17280 17282 1 180.0000771 15.1670000 2
17281 17279 17280 17282 4 180.0000771 4.6024000 2
17278 17279 17288 17280 4 180.0000771 4.6024000 2
17278 17279 17288 17286 1 180.0000771 15.1670000 2
17278 17279 17288 17289 1 180.0000771 15.1670000 2
17280 17279 17288 17286 1 180.0000771 15.1670000 2
17280 17279 17288 17289 1 180.0000771 15.1670000 2
17281 17280 17279 17288 1 180.0000771 15.1670000 2
17282 17280 17279 17288 1 180.0000771 15.1670000 2
17279 17280 17282 17283 1 180.0000771 15.1670000 2
17279 17280 17282 17284 1 180.0000771 15.1670000 2
17281 17280 17282 17283 1 180.0000771 15.1670000 2
17281 17280 17282 17284 1 180.0000771 15.1670000 2
17280 17282 17284 17285 1 180.0000771 15.1670000 2
17280 17282 17284 17286 1 180.0000771 15.1670000 2
17283 17282 17284 17285 1 180.0000771 15.1670000 2
17283 17282 17284 17286 1 180.0000771 15.1670000 2
17280 17284 17282 17283 4 180.0000771 4.6024000 2
17282 17284 17286 17287 1 180.0000771 15.1670000 2
17282 17284 17286 17288 1 180.0000771 15.1670000 2
17285 17284 17286 17287 1 180.0000771 15.1670000 2
17285 17284 17286 17288 1 180.0000771 15.1670000 2
17282 17286 17284 17285 4 180.0000771 4.6024000 2
17279 17286 17288 17289 4 180.0000771 4.6024000 2
17284 17286 17288 17289 1 180.0000771 15.1670000 2
17287 17286 17288 17289 1 180.0000771 15.1670000 2
17279 17288 17286 17284 1 180.0000771 15.1670000 2
17279 17288 17286 17287 1 180.0000771 15.1670000 2
17284 17288 17286 17287 4 180.0000771 4.6024000 2
17292 17293 17294 17295 1 180.0000771 15.1670000 2
17292 17293 17294 17296 1 180.0000771 15.1670000 2
17295 17293 17294 17296 4 180.0000771 4.6024000 2
17292 17293 17302 17294 4 180.0000771 4.6024000 2
17292 17293 17302 17300 1 180.0000771 15.1670000 2
17292 17293 17302 17303 1 180.0000771 15.1670000 2
17294 17293 17302 17300 1 180.0000771 15.1670000 2
17294 17293 17302 17303 1 180.0000771 15.1670000 2
17295 17294 17293 17302 1 180.0000771 15.1670000 2
17296 17294 17293 17302 1 180.0000771 15.1670000 2
17293 17294 17296 17297 1 180.0000771 15.1670000 2
17293 17294 17296 17298 1 180.0000771 15.1670000 2
17295 17294 17296 17297 1 180.0000771 15.1670000 2
17295 17294 17296 17298 1 180.0000771 15.1670000 2
17294 17296 17298 17299 1 180.0000771 15.1670000 2
17294 17296 17298 17300 1 180.0000771 15.1670000 2
17297 17296 17298 17299 1 180.0000771 15.1670000 2
17297 17296 17298 17300 1 180.0000771 15.1670000 2
17294 17298 17296 17297 4 180.0000771 4.6024000 2
17296 17298 17300 17301 1 180.0000771 15.1670000 2
17296 17298 17300 17302 1 180.0000771 15.1670000 2
17299 17298 17300 17301 1 180.0000771 15.1670000 2
17299 17298 17300 17302 1 180.0000771 15.1670000 2
17296 17300 17298 17299 4 180.0000771 4.6024000 2
17293 17300 17302 17303 4 180.0000771 4.6024000 2
17298 17300 17302 17303 1 180.0000771 15.1670000 2
17301 17300 17302 17303 1 180.0000771 15.1670000 2
17293 17302 17300 17298 1 180.0000771 15.1670000 2
17293 17302 17300 17301 1 180.0000771 15.1670000 2
17298 17302 17300 17301 4 180.0000771 4.6024000 2
17306 17307 17308 17309 1 180.0000771 15.1670000 2
17306 17307 17308 17310 1 180.0000771 15.1670000 2
17309 17307 17308 17310 4 180.0000771 4.6024000 2
17306 17307 17316 17308 4 180.0000771 4.6024000 2
17306 17307 17316 17314 1 180.0000771 15.1670000 2
17306 17307 17316 17317 1 180.0000771 15.1670000 2
17308 17307 17316 17314 1 180.0000771 15.1670000 2
17308 17307 17316 17317 1 180.0000771 15.1670000 2
17309 17308 17307 17316 1 180.0000771 15.1670000 2
17310 17308 17307 17316 1 180.0000771 15.1670000 2
17307 17308 17310 17311 1 180.0000771 15.1670000 2
17307 17308 17310 17312 1 180.0000771 15.1670000 2
17309 17308 17310 17311 1 180.0000771 15.1670000 2
17309 17308 17310 17312 1 180.0000771 15.1670000 2
17308 17310 17312 17313 1 180.0000771 15.1670000 2
17308 17310 17312 17314 1 180.0000771 15.1670000 2
17311 17310 17312 17313 1 180.0000771 15.1670000 2
17311 17310 17312 17314 1 180.0000771 15.1670000 2
17308 17312 17310 17311 4 180.0000771 4.6024000 2
17310 17312 17314 17315 1 180.0000771 15.1670000 2
17310 17312 17314 17316 1 180.0000771 15.1670000 2
17313 17312 17314 17315 1 180.0000771 15.1670000 2
17313 17312 17314 17316 1 180.0000771 15.1670000 2
17310 17314 17312 17313 4 180.0000771 4.6024000 2
17307 17314 17316 17317 4 180.0000771 4.6024000 2
17312 17314 17316 17317 1 180.0000771 15.1670000 2
17315 17314 17316 17317 1 180.0000771 15.1670000 2
17307 17316 17314 17312 1 180.0000771 15.1670000 2
17307 17316 17314 17315 1 180.0000771 15.1670000 2
17312 17316 17314 17315 4 180.0000771 4.6024000 2
17320 17321 17322 17323 1 180.0000771 15.1670000 2
17320 17321 17322 17324 1 180.0000771 15.1670000 2
17323 17321 17322 17324 4 180.0000771 4.6024000 2
17320 17321 17330 17322 4 180.0000771 4.6024000 2
17320 17321 17330 17328 1 180.0000771 15.1670000 2
17320 17321 17330 17331 1 180.0000771 15.1670000 2
17322 17321 17330 17328 1 180.0000771 15.1670000 2
17322 17321 17330 17331 1 180.0000771 15.1670000 2
17323 17322 17321 17330 1 180.0000771 15.1670000 2
17324 17322 17321 17330 1 180.0000771 15.1670000 2
17321 17322 17324 17325 1 180.0000771 15.1670000 2
17321 17322 17324 17326 1 180.0000771 15.1670000 2
17323 17322 17324 17325 1 180.0000771 15.1670000 2
17323 17322 17324 17326 1 180.0000771 15.1670000 2
17322 17324 17326 17327 1 180.0000771 15.1670000 2
17322 17324 17326 17328 1 180.0000771 15.1670000 2
17325 17324 17326 17327 1 180.0000771 15.1670000 2
17325 17324 17326 17328 1 180.0000771 15.1670000 2
17322 17326 17324 17325 4 180.0000771 4.6024000 2
17324 17326 17328 17329 1 180.0000771 15.1670000 2
17324 17326 17328 17330 1 180.0000771 15.1670000 2
17327 17326 17328 17329 1 180.0000771 15.1670000 2
17327 17326 17328 17330 1 180.0000771 15.1670000 2
17324 17328 17326 17327 4 180.0000771 4.6024000 2
17321 17328 17330 17331 4 180.0000771 4.6024000 2
17326 17328 17330 17331 1 180.0000771 15.1670000 2
17329 17328 17330 17331 1 180.0000771 15.1670000 2
17321 17330 17328 17326 1 180.0000771 15.1670000 2
17321 17330 17328 17329 1 180.0000771 15.1670000 2
17326 17330 17328 17329 4 180.0000771 4.6024000 2
17334 17335 17336 17337 1 180.0000771 15.1670000 2
17334 17335 17336 17338 1 180.0000771 15.1670000 2
17337 17335 17336 17338 4 180.0000771 4.6024000 2
17334 17335 17344 17336 4 180.0000771 4.6024000 2
17334 17335 17344 17342 1 180.0000771 15.1670000 2
17334 17335 17344 17345 1 180.0000771 15.1670000 2
17336 17335 17344 17342 1 180.0000771 15.1670000 2
17336 17335 17344 17345 1 180.0000771 15.1670000 2
17337 17336 17335 17344 1 180.0000771 15.1670000 2
17338 17336 17335 17344 1 180.0000771 15.1670000 2
17335 17336 17338 17339 1 180.0000771 15.1670000 2
17335 17336 17338 17340 1 180.0000771 15.1670000 2
17337 17336 17338 17339 1 180.0000771 15.1670000 2
17337 17336 17338 17340 1 180.0000771 15.1670000 2
17336 17338 17340 17341 1 180.0000771 15.1670000 2
17336 17338 17340 17342 1 180.0000771 15.1670000 2
17339 17338 17340 17341 1 180.0000771 15.1670000 2
17339 17338 17340 17342 1 180.0000771 15.1670000 2
17336 17340 17338 17339 4 180.0000771 4.6024000 2
17338 17340 17342 17343 1 180.0000771 15.1670000 2
17338 17340 17342 17344 1 180.0000771 15.1670000 2
17341 17340 17342 17343 1 180.0000771 15.1670000 2
17341 17340 17342 17344 1 180.0000771 15.1670000 2
17338 17342 17340 17341 4 180.0000771 4.6024000 2
17335 17342 17344 17345 4 180.0000771 4.6024000 2
17340 17342 17344 17345 1 180.0000771 15.1670000 2
17343 17342 17344 17345 1 180.0000771 15.1670000 2
17335 17344 17342 17340 1 180.0000771 15.1670000 2
17335 17344 17342 17343 1 180.0000771 15.1670000 2
17340 17344 17342 17343 4 180.0000771 4.6024000 2
17348 17349 17350 17351 1 180.0000771 15.1670000 2
17348 17349 17350 17352 1 180.0000771 15.1670000 2
17351 17349 17350 17352 4 180.0000771 4.6024000 2
17348 17349 17358 17350 4 180.0000771 4.6024000 2
17348 17349 17358 17356 1 180.0000771 15.1670000 2
17348 17349 17358 17359 1 180.0000771 15.1670000 2
17350 17349 17358 17356 1 180.0000771 15.1670000 2
17350 17349 17358 17359 1 180.0000771 15.1670000 2
17351 17350 17349 17358 1 180.0000771 15.1670000 2
17352 17350 17349 17358 1 180.0000771 15.1670000 2
17349 17350 17352 17353 1 180.0000771 15.1670000 2
17349 17350 17352 17354 1 180.0000771 15.1670000 2
17351 17350 17352 17353 1 180.0000771 15.1670000 2
17351 17350 17352 17354 1 180.0000771 15.1670000 2
17350 17352 17354 17355 1 180.0000771 15.1670000 2
17350 17352 17354 17356 1 180.0000771 15.1670000 2
17353 17352 17354 17355 1 180.0000771 15.1670000 2
17353 17352 17354 17356 1 180.0000771 15.1670000 2
17350 17354 17352 17353 4 180.0000771 4.6024000 2
17352 17354 17356 17357 1 180.0000771 15.1670000 2
17352 17354 17356 17358 1 180.0000771 15.1670000 2
17355 17354 17356 17357 1 180.0000771 15.1670000 2
17355 17354 17356 17358 1 180.0000771 15.1670000 2
17352 17356 17354 17355 4 180.0000771 4.6024000 2
17349 17356 17358 17359 4 180.0000771 4.6024000 2
17354 17356 17358 17359 1 180.0000771 15.1670000 2
17357 17356 17358 17359 1 180.0000771 15.1670000 2
17349 17358 17356 17354 1 180.0000771 15.1670000 2
17349 17358 17356 17357 1 180.0000771 15.1670000 2
17354 17358 17356 17357 4 180.0000771 4.6024000 2
17362 17363 17364 17365 1 180.0000771 15.1670000 2
17362 17363 17364 17366 1 180.0000771 15.1670000 2
17365 17363 17364 17366 4 180.0000771 4.6024000 2
17362 17363 17372 17364 4 180.0000771 4.6024000 2
17362 17363 17372 17370 1 180.0000771 15.1670000 2
17362 17363 17372 17373 1 180.0000771 15.1670000 2
17364 17363 17372 17370 1 180.0000771 15.1670000 2
17364 17363 17372 17373 1 180.0000771 15.1670000 2
17365 17364 17363 17372 1 180.0000771 15.1670000 2
17366 17364 17363 17372 1 180.0000771 15.1670000 2
17363 17364 17366 17367 1 180.0000771 15.1670000 2
17363 17364 17366 17368 1 180.0000771 15.1670000 2
17365 17364 17366 17367 1 180.0000771 15.1670000 2
17365 17364 17366 17368 1 180.0000771 15.1670000 2
17364 17366 17368 17369 1 180.0000771 15.1670000 2
17364 17366 17368 17370 1 180.0000771 15.1670000 2
17367 17366 17368 17369 1 180.0000771 15.1670000 2
17367 17366 17368 17370 1 180.0000771 15.1670000 2
17364 17368 17366 17367 4 180.0000771 4.6024000 2
17366 17368 17370 17371 1 180.0000771 15.1670000 2
17366 17368 17370 17372 1 180.0000771 15.1670000 2
17369 17368 17370 17371 1 180.0000771 15.1670000 2
17369 17368 17370 17372 1 180.0000771 15.1670000 2
17366 17370 17368 17369 4 180.0000771 4.6024000 2
17363 17370 17372 17373 4 180.0000771 4.6024000 2
17368 17370 17372 17373 1 180.0000771 15.1670000 2
17371 17370 17372 17373 1 180.0000771 15.1670000 2
17363 17372 17370 17368 1 180.0000771 15.1670000 2
17363 17372 17370 17371 1 180.0000771 15.1670000 2
17368 17372 17370 17371 4 180.0000771 4.6024000 2
17376 17377 17378 17379 1 180.0000771 15.1670000 2
17376 17377 17378 17380 1 180.0000771 15.1670000 2
17379 17377 17378 17380 4 180.0000771 4.6024000 2
17376 17377 17386 17378 4 180.0000771 4.6024000 2
17376 17377 17386 17384 1 180.0000771 15.1670000 2
17376 17377 17386 17387 1 180.0000771 15.1670000 2
17378 17377 17386 17384 1 180.0000771 15.1670000 2
17378 17377 17386 17387 1 180.0000771 15.1670000 2
17379 17378 17377 17386 1 180.0000771 15.1670000 2
17380 17378 17377 17386 1 180.0000771 15.1670000 2
17377 17378 17380 17381 1 180.0000771 15.1670000 2
17377 17378 17380 17382 1 180.0000771 15.1670000 2
17379 17378 17380 17381 1 180.0000771 15.1670000 2
17379 17378 17380 17382 1 180.0000771 15.1670000 2
17378 17380 17382 17383 1 180.0000771 15.1670000 2
17378 17380 17382 17384 1 180.0000771 15.1670000 2
17381 17380 17382 17383 1 180.0000771 15.1670000 2
17381 17380 17382 17384 1 180.0000771 15.1670000 2
17378 17382 17380 17381 4 180.0000771 4.6024000 2
17380 17382 17384 17385 1 180.0000771 15.1670000 2
17380 17382 17384 17386 1 180.0000771 15.1670000 2
17383 17382 17384 17385 1 180.0000771 15.1670000 2
17383 17382 17384 17386 1 180.0000771 15.1670000 2
17380 17384 17382 17383 4 180.0000771 4.6024000 2
17377 17384 17386 17387 4 180.0000771 4.6024000 2
17382 17384 17386 17387 1 180.0000771 15.1670000 2
17385 17384 17386 17387 1 180.0000771 15.1670000 2
17377 17386 17384 17382 1 180.0000771 15.1670000 2
17377 17386 17384 17385 1 180.0000771 15.1670000 2
17382 17386 17384 17385 4 180.0000771 4.6024000 2
17390 17391 17392 17393 1 180.0000771 15.1670000 2
17390 17391 17392 17394 1 180.0000771 15.1670000 2
17393 17391 17392 17394 4 180.0000771 4.6024000 2
17390 17391 17400 17392 4 180.0000771 4.6024000 2
17390 17391 17400 17398 1 180.0000771 15.1670000 2
17390 17391 17400 17401 1 180.0000771 15.1670000 2
17392 17391 17400 17398 1 180.0000771 15.1670000 2
17392 17391 17400 17401 1 180.0000771 15.1670000 2
17393 17392 17391 17400 1 180.0000771 15.1670000 2
17394 17392 17391 17400 1 180.0000771 15.1670000 2
17391 17392 17394 17395 1 180.0000771 15.1670000 2
17391 17392 17394 17396 1 180.0000771 15.1670000 2
17393 17392 17394 17395 1 180.0000771 15.1670000 2
17393 17392 17394 17396 1 180.0000771 15.1670000 2
17392 17394 17396 17397 1 180.0000771 15.1670000 2
17392 17394 17396 17398 1 180.0000771 15.1670000 2
17395 17394 17396 17397 1 180.0000771 15.1670000 2
17395 17394 17396 17398 1 180.0000771 15.1670000 2
17392 17396 17394 17395 4 180.0000771 4.6024000 2
17394 17396 17398 17399 1 180.0000771 15.1670000 2
17394 17396 17398 17400 1 180.0000771 15.1670000 2
17397 17396 17398 17399 1 180.0000771 15.1670000 2
17397 17396 17398 17400 1 180.0000771 15.1670000 2
17394 17398 17396 17397 4 180.0000771 4.6024000 2
17391 17398 17400 17401 4 180.0000771 4.6024000 2
17396 17398 17400 17401 1 180.0000771 15.1670000 2
17399 17398 17400 17401 1 180.0000771 15.1670000 2
17391 17400 17398 17396 1 180.0000771 15.1670000 2
17391 17400 17398 17399 1 180.0000771 15.1670000 2
17396 17400 17398 17399 4 180.0000771 4.6024000 2
17404 17405 17406 17407 1 180.0000771 15.1670000 2
17404 17405 17406 17408 1 180.0000771 15.1670000 2
17407 17405 17406 17408 4 180.0000771 4.6024000 2
17404 17405 17414 17406 4 180.0000771 4.6024000 2
17404 17405 17414 17412 1 180.0000771 15.1670000 2
17404 17405 17414 17415 1 180.0000771 15.1670000 2
17406 17405 17414 17412 1 180.0000771 15.1670000 2
17406 17405 17414 17415 1 180.0000771 15.1670000 2
17407 17406 17405 17414 1 180.0000771 15.1670000 2
17408 17406 17405 17414 1 180.0000771 15.1670000 2
17405 17406 17408 17409 1 180.0000771 15.1670000 2
17405 17406 17408 17410 1 180.0000771 15.1670000 2
17407 17406 17408 17409 1 180.0000771 15.1670000 2
17407 17406 17408 17410 1 180.0000771 15.1670000 2
17406 17408 17410 17411 1 180.0000771 15.1670000 2
17406 17408 17410 17412 1 180.0000771 15.1670000 2
17409 17408 17410 17411 1 180.0000771 15.1670000 2
17409 17408 17410 17412 1 180.0000771 15.1670000 2
17406 17410 17408 17409 4 180.0000771 4.6024000 2
17408 17410 17412 17413 1 180.0000771 15.1670000 2
17408 17410 17412 17414 1 180.0000771 15.1670000 2
17411 17410 17412 17413 1 180.0000771 15.1670000 2
17411 17410 17412 17414 1 180.0000771 15.1670000 2
17408 17412 17410 17411 4 180.0000771 4.6024000 2
17405 17412 17414 17415 4 180.0000771 4.6024000 2
17410 17412 17414 17415 1 180.0000771 15.1670000 2
17413 17412 17414 17415 1 180.0000771 15.1670000 2
17405 17414 17412 17410 1 180.0000771 15.1670000 2
17405 17414 17412 17413 1 180.0000771 15.1670000 2
17410 17414 17412 17413 4 180.0000771 4.6024000 2
17418 17419 17420 17421 1 180.0000771 15.1670000 2
17418 17419 17420 17422 1 180.0000771 15.1670000 2
17421 17419 17420 17422 4 180.0000771 4.6024000 2
17418 17419 17428 17420 4 180.0000771 4.6024000 2
17418 17419 17428 17426 1 180.0000771 15.1670000 2
17418 17419 17428 17429 1 180.0000771 15.1670000 2
17420 17419 17428 17426 1 180.0000771 15.1670000 2
17420 17419 17428 17429 1 180.0000771 15.1670000 2
17421 17420 17419 17428 1 180.0000771 15.1670000 2
17422 17420 17419 17428 1 180.0000771 15.1670000 2
17419 17420 17422 17423 1 180.0000771 15.1670000 2
17419 17420 17422 17424 1 180.0000771 15.1670000 2
17421 17420 17422 17423 1 180.0000771 15.1670000 2
17421 17420 17422 17424 1 180.0000771 15.1670000 2
17420 17422 17424 17425 1 180.0000771 15.1670000 2
17420 17422 17424 17426 1 180.0000771 15.1670000 2
17423 17422 17424 17425 1 180.0000771 15.1670000 2
17423 17422 17424 17426 1 180.0000771 15.1670000 2
17420 17424 17422 17423 4 180.0000771 4.6024000 2
17422 17424 17426 17427 1 180.0000771 15.1670000 2
17422 17424 17426 17428 1 180.0000771 15.1670000 2
17425 17424 17426 17427 1 180.0000771 15.1670000 2
17425 17424 17426 17428 1 180.0000771 15.1670000 2
17422 17426 17424 17425 4 180.0000771 4.6024000 2
17419 17426 17428 17429 4 180.0000771 4.6024000 2
17424 17426 17428 17429 1 180.0000771 15.1670000 2
17427 17426 17428 17429 1 180.0000771 15.1670000 2
17419 17428 17426 17424 1 180.0000771 15.1670000 2
17419 17428 17426 17427 1 180.0000771 15.1670000 2
17424 17428 17426 17427 4 180.0000771 4.6024000 2
17432 17433 17434 17435 1 180.0000771 15.1670000 2
17432 17433 17434 17436 1 180.0000771 15.1670000 2
17435 17433 17434 17436 4 180.0000771 4.6024000 2
17432 17433 17442 17434 4 180.0000771 4.6024000 2
17432 17433 17442 17440 1 180.0000771 15.1670000 2
17432 17433 17442 17443 1 180.0000771 15.1670000 2
17434 17433 17442 17440 1 180.0000771 15.1670000 2
17434 17433 17442 17443 1 180.0000771 15.1670000 2
17435 17434 17433 17442 1 180.0000771 15.1670000 2
17436 17434 17433 17442 1 180.0000771 15.1670000 2
17433 17434 17436 17437 1 180.0000771 15.1670000 2
17433 17434 17436 17438 1 180.0000771 15.1670000 2
17435 17434 17436 17437 1 180.0000771 15.1670000 2
17435 17434 17436 17438 1 180.0000771 15.1670000 2
17434 17436 17438 17439 1 180.0000771 15.1670000 2
17434 17436 17438 17440 1 180.0000771 15.1670000 2
17437 17436 17438 17439 1 180.0000771 15.1670000 2
17437 17436 17438 17440 1 180.0000771 15.1670000 2
17434 17438 17436 17437 4 180.0000771 4.6024000 2
17436 17438 17440 17441 1 180.0000771 15.1670000 2
17436 17438 17440 17442 1 180.0000771 15.1670000 2
17439 17438 17440 17441 1 180.0000771 15.1670000 2
17439 17438 17440 17442 1 180.0000771 15.1670000 2
17436 17440 17438 17439 4 180.0000771 4.6024000 2
17433 17440 17442 17443 4 180.0000771 4.6024000 2
17438 17440 17442 17443 1 180.0000771 15.1670000 2
17441 17440 17442 17443 1 180.0000771 15.1670000 2
17433 17442 17440 17438 1 180.0000771 15.1670000 2
17433 17442 17440 17441 1 180.0000771 15.1670000 2
17438 17442 17440 17441 4 180.0000771 4.6024000 2
17446 17447 17448 17449 1 180.0000771 15.1670000 2
17446 17447 17448 17450 1 180.0000771 15.1670000 2
17449 17447 17448 17450 4 180.0000771 4.6024000 2
17446 17447 17456 17448 4 180.0000771 4.6024000 2
17446 17447 17456 17454 1 180.0000771 15.1670000 2
17446 17447 17456 17457 1 180.0000771 15.1670000 2
17448 17447 17456 17454 1 180.0000771 15.1670000 2
17448 17447 17456 17457 1 180.0000771 15.1670000 2
17449 17448 17447 17456 1 180.0000771 15.1670000 2
17450 17448 17447 17456 1 180.0000771 15.1670000 2
17447 17448 17450 17451 1 180.0000771 15.1670000 2
17447 17448 17450 17452 1 180.0000771 15.1670000 2
17449 17448 17450 17451 1 180.0000771 15.1670000 2
17449 17448 17450 17452 1 180.0000771 15.1670000 2
17448 17450 17452 17453 1 180.0000771 15.1670000 2
17448 17450 17452 17454 1 180.0000771 15.1670000 2
17451 17450 17452 17453 1 180.0000771 15.1670000 2
17451 17450 17452 17454 1 180.0000771 15.1670000 2
17448 17452 17450 17451 4 180.0000771 4.6024000 2
17450 17452 17454 17455 1 180.0000771 15.1670000 2
17450 17452 17454 17456 1 180.0000771 15.1670000 2
17453 17452 17454 17455 1 180.0000771 15.1670000 2
17453 17452 17454 17456 1 180.0000771 15.1670000 2
17450 17454 17452 17453 4 180.0000771 4.6024000 2
17447 17454 17456 17457 4 180.0000771 4.6024000 2
17452 17454 17456 17457 1 180.0000771 15.1670000 2
17455 17454 17456 17457 1 180.0000771 15.1670000 2
17447 17456 17454 17452 1 180.0000771 15.1670000 2
17447 17456 17454 17455 1 180.0000771 15.1670000 2
17452 17456 17454 17455 4 180.0000771 4.6024000 2
17460 17461 17462 17463 1 180.0000771 15.1670000 2
17460 17461 17462 17464 1 180.0000771 15.1670000 2
17463 17461 17462 17464 4 180.0000771 4.6024000 2
17460 17461 17470 17462 4 180.0000771 4.6024000 2
17460 17461 17470 17468 1 180.0000771 15.1670000 2
17460 17461 17470 17471 1 180.0000771 15.1670000 2
17462 17461 17470 17468 1 180.0000771 15.1670000 2
17462 17461 17470 17471 1 180.0000771 15.1670000 2
17463 17462 17461 17470 1 180.0000771 15.1670000 2
17464 17462 17461 17470 1 180.0000771 15.1670000 2
17461 17462 17464 17465 1 180.0000771 15.1670000 2
17461 17462 17464 17466 1 180.0000771 15.1670000 2
17463 17462 17464 17465 1 180.0000771 15.1670000 2
17463 17462 17464 17466 1 180.0000771 15.1670000 2
17462 17464 17466 17467 1 180.0000771 15.1670000 2
17462 17464 17466 17468 1 180.0000771 15.1670000 2
17465 17464 17466 17467 1 180.0000771 15.1670000 2
17465 17464 17466 17468 1 180.0000771 15.1670000 2
17462 17466 17464 17465 4 180.0000771 4.6024000 2
17464 17466 17468 17469 1 180.0000771 15.1670000 2
17464 17466 17468 17470 1 180.0000771 15.1670000 2
17467 17466 17468 17469 1 180.0000771 15.1670000 2
17467 17466 17468 17470 1 180.0000771 15.1670000 2
17464 17468 17466 17467 4 180.0000771 4.6024000 2
17461 17468 17470 17471 4 180.0000771 4.6024000 2
17466 17468 17470 17471 1 180.0000771 15.1670000 2
17469 17468 17470 17471 1 180.0000771 15.1670000 2
17461 17470 17468 17466 1 180.0000771 15.1670000 2
17461 17470 17468 17469 1 180.0000771 15.1670000 2
17466 17470 17468 17469 4 180.0000771 4.6024000 2
17474 17475 17476 17477 1 180.0000771 15.1670000 2
17474 17475 17476 17478 1 180.0000771 15.1670000 2
17477 17475 17476 17478 4 180.0000771 4.6024000 2
17474 17475 17484 17476 4 180.0000771 4.6024000 2
17474 17475 17484 17482 1 180.0000771 15.1670000 2
17474 17475 17484 17485 1 180.0000771 15.1670000 2
17476 17475 17484 17482 1 180.0000771 15.1670000 2
17476 17475 17484 17485 1 180.0000771 15.1670000 2
17477 17476 17475 17484 1 180.0000771 15.1670000 2
17478 17476 17475 17484 1 180.0000771 15.1670000 2
17475 17476 17478 17479 1 180.0000771 15.1670000 2
17475 17476 17478 17480 1 180.0000771 15.1670000 2
17477 17476 17478 17479 1 180.0000771 15.1670000 2
17477 17476 17478 17480 1 180.0000771 15.1670000 2
17476 17478 17480 17481 1 180.0000771 15.1670000 2
17476 17478 17480 17482 1 180.0000771 15.1670000 2
17479 17478 17480 17481 1 180.0000771 15.1670000 2
17479 17478 17480 17482 1 180.0000771 15.1670000 2
17476 17480 17478 17479 4 180.0000771 4.6024000 2
17478 17480 17482 17483 1 180.0000771 15.1670000 2
17478 17480 17482 17484 1 180.0000771 15.1670000 2
17481 17480 17482 17483 1 180.0000771 15.1670000 2
17481 17480 17482 17484 1 180.0000771 15.1670000 2
17478 17482 17480 17481 4 180.0000771 4.6024000 2
17475 17482 17484 17485 4 180.0000771 4.6024000 2
17480 17482 17484 17485 1 180.0000771 15.1670000 2
17483 17482 17484 17485 1 180.0000771 15.1670000 2
17475 17484 17482 17480 1 180.0000771 15.1670000 2
17475 17484 17482 17483 1 180.0000771 15.1670000 2
17480 17484 17482 17483 4 180.0000771 4.6024000 2
17488 17489 17490 17491 1 180.0000771 15.1670000 2
17488 17489 17490 17492 1 180.0000771 15.1670000 2
17491 17489 17490 17492 4 180.0000771 4.6024000 2
17488 17489 17498 17490 4 180.0000771 4.6024000 2
17488 17489 17498 17496 1 180.0000771 15.1670000 2
17488 17489 17498 17499 1 180.0000771 15.1670000 2
17490 17489 17498 17496 1 180.0000771 15.1670000 2
17490 17489 17498 17499 1 180.0000771 15.1670000 2
17491 17490 17489 17498 1 180.0000771 15.1670000 2
17492 17490 17489 17498 1 180.0000771 15.1670000 2
17489 17490 17492 17493 1 180.0000771 15.1670000 2
17489 17490 17492 17494 1 180.0000771 15.1670000 2
17491 17490 17492 17493 1 180.0000771 15.1670000 2
17491 17490 17492 17494 1 180.0000771 15.1670000 2
17490 17492 17494 17495 1 180.0000771 15.1670000 2
17490 17492 17494 17496 1 180.0000771 15.1670000 2
17493 17492 17494 17495 1 180.0000771 15.1670000 2
17493 17492 17494 17496 1 180.0000771 15.1670000 2
17490 17494 17492 17493 4 180.0000771 4.6024000 2
17492 17494 17496 17497 1 180.0000771 15.1670000 2
17492 17494 17496 17498 1 180.0000771 15.1670000 2
17495 17494 17496 17497 1 180.0000771 15.1670000 2
17495 17494 17496 17498 1 180.0000771 15.1670000 2
17492 17496 17494 17495 4 180.0000771 4.6024000 2
17489 17496 17498 17499 4 180.0000771 4.6024000 2
17494 17496 17498 17499 1 180.0000771 15.1670000 2
17497 17496 17498 17499 1 180.0000771 15.1670000 2
17489 17498 17496 17494 1 180.0000771 15.1670000 2
17489 17498 17496 17497 1 180.0000771 15.1670000 2
17494 17498 17496 17497 4 180.0000771 4.6024000 2
17502 17503 17504 17505 1 180.0000771 15.1670000 2
17502 17503 17504 17506 1 180.0000771 15.1670000 2
17505 17503 17504 17506 4 180.0000771 4.6024000 2
17502 17503 17512 17504 4 180.0000771 4.6024000 2
17502 17503 17512 17510 1 180.0000771 15.1670000 2
17502 17503 17512 17513 1 180.0000771 15.1670000 2
17504 17503 17512 17510 1 180.0000771 15.1670000 2
17504 17503 17512 17513 1 180.0000771 15.1670000 2
17505 17504 17503 17512 1 180.0000771 15.1670000 2
17506 17504 17503 17512 1 180.0000771 15.1670000 2
17503 17504 17506 17507 1 180.0000771 15.1670000 2
17503 17504 17506 17508 1 180.0000771 15.1670000 2
17505 17504 17506 17507 1 180.0000771 15.1670000 2
17505 17504 17506 17508 1 180.0000771 15.1670000 2
17504 17506 17508 17509 1 180.0000771 15.1670000 2
17504 17506 17508 17510 1 180.0000771 15.1670000 2
17507 17506 17508 17509 1 180.0000771 15.1670000 2
17507 17506 17508 17510 1 180.0000771 15.1670000 2
17504 17508 17506 17507 4 180.0000771 4.6024000 2
17506 17508 17510 17511 1 180.0000771 15.1670000 2
17506 17508 17510 17512 1 180.0000771 15.1670000 2
17509 17508 17510 17511 1 180.0000771 15.1670000 2
17509 17508 17510 17512 1 180.0000771 15.1670000 2
17506 17510 17508 17509 4 180.0000771 4.6024000 2
17503 17510 17512 17513 4 180.0000771 4.6024000 2
17508 17510 17512 17513 1 180.0000771 15.1670000 2
17511 17510 17512 17513 1 180.0000771 15.1670000 2
17503 17512 17510 17508 1 180.0000771 15.1670000 2
17503 17512 17510 17511 1 180.0000771 15.1670000 2
17508 17512 17510 17511 4 180.0000771 4.6024000 2
17516 17517 17518 17519 1 180.0000771 15.1670000 2
17516 17517 17518 17520 1 180.0000771 15.1670000 2
17519 17517 17518 17520 4 180.0000771 4.6024000 2
17516 17517 17526 17518 4 180.0000771 4.6024000 2
17516 17517 17526 17524 1 180.0000771 15.1670000 2
17516 17517 17526 17527 1 180.0000771 15.1670000 2
17518 17517 17526 17524 1 180.0000771 15.1670000 2
17518 17517 17526 17527 1 180.0000771 15.1670000 2
17519 17518 17517 17526 1 180.0000771 15.1670000 2
17520 17518 17517 17526 1 180.0000771 15.1670000 2
17517 17518 17520 17521 1 180.0000771 15.1670000 2
17517 17518 17520 17522 1 180.0000771 15.1670000 2
17519 17518 17520 17521 1 180.0000771 15.1670000 2
17519 17518 17520 17522 1 180.0000771 15.1670000 2
17518 17520 17522 17523 1 180.0000771 15.1670000 2
17518 17520 17522 17524 1 180.0000771 15.1670000 2
17521 17520 17522 17523 1 180.0000771 15.1670000 2
17521 17520 17522 17524 1 180.0000771 15.1670000 2
17518 17522 17520 17521 4 180.0000771 4.6024000 2
17520 17522 17524 17525 1 180.0000771 15.1670000 2
17520 17522 17524 17526 1 180.0000771 15.1670000 2
17523 17522 17524 17525 1 180.0000771 15.1670000 2
17523 17522 17524 17526 1 180.0000771 15.1670000 2
17520 17524 17522 17523 4 180.0000771 4.6024000 2
17517 17524 17526 17527 4 180.0000771 4.6024000 2
17522 17524 17526 17527 1 180.0000771 15.1670000 2
17525 17524 17526 17527 1 180.0000771 15.1670000 2
17517 17526 17524 17522 1 180.0000771 15.1670000 2
17517 17526 17524 17525 1 180.0000771 15.1670000 2
17522 17526 17524 17525 4 180.0000771 4.6024000 2
17530 17531 17532 17533 1 180.0000771 15.1670000 2
17530 17531 17532 17534 1 180.0000771 15.1670000 2
17533 17531 17532 17534 4 180.0000771 4.6024000 2
17530 17531 17540 17532 4 180.0000771 4.6024000 2
17530 17531 17540 17538 1 180.0000771 15.1670000 2
17530 17531 17540 17541 1 180.0000771 15.1670000 2
17532 17531 17540 17538 1 180.0000771 15.1670000 2
17532 17531 17540 17541 1 180.0000771 15.1670000 2
17533 17532 17531 17540 1 180.0000771 15.1670000 2
17534 17532 17531 17540 1 180.0000771 15.1670000 2
17531 17532 17534 17535 1 180.0000771 15.1670000 2
17531 17532 17534 17536 1 180.0000771 15.1670000 2
17533 17532 17534 17535 1 180.0000771 15.1670000 2
17533 17532 17534 17536 1 180.0000771 15.1670000 2
17532 17534 17536 17537 1 180.0000771 15.1670000 2
17532 17534 17536 17538 1 180.0000771 15.1670000 2
17535 17534 17536 17537 1 180.0000771 15.1670000 2
17535 17534 17536 17538 1 180.0000771 15.1670000 2
17532 17536 17534 17535 4 180.0000771 4.6024000 2
17534 17536 17538 17539 1 180.0000771 15.1670000 2
17534 17536 17538 17540 1 180.0000771 15.1670000 2
17537 17536 17538 17539 1 180.0000771 15.1670000 2
17537 17536 17538 17540 1 180.0000771 15.1670000 2
17534 17538 17536 17537 4 180.0000771 4.6024000 2
17531 17538 17540 17541 4 180.0000771 4.6024000 2
17536 17538 17540 17541 1 180.0000771 15.1670000 2
17539 17538 17540 17541 1 180.0000771 15.1670000 2
17531 17540 17538 17536 1 180.0000771 15.1670000 2
17531 17540 17538 17539 1 180.0000771 15.1670000 2
17536 17540 17538 17539 4 180.0000771 4.6024000 2
17544 17545 17546 17547 1 180.0000771 15.1670000 2
17544 17545 17546 17548 1 180.0000771 15.1670000 2
17547 17545 17546 17548 4 180.0000771 4.6024000 2
17544 17545 17554 17546 4 180.0000771 4.6024000 2
17544 17545 17554 17552 1 180.0000771 15.1670000 2
17544 17545 17554 17555 1 180.0000771 15.1670000 2
17546 17545 17554 17552 1 180.0000771 15.1670000 2
17546 17545 17554 17555 1 180.0000771 15.1670000 2
17547 17546 17545 17554 1 180.0000771 15.1670000 2
17548 17546 17545 17554 1 180.0000771 15.1670000 2
17545 17546 17548 17549 1 180.0000771 15.1670000 2
17545 17546 17548 17550 1 180.0000771 15.1670000 2
17547 17546 17548 17549 1 180.0000771 15.1670000 2
17547 17546 17548 17550 1 180.0000771 15.1670000 2
17546 17548 17550 17551 1 180.0000771 15.1670000 2
17546 17548 17550 17552 1 180.0000771 15.1670000 2
17549 17548 17550 17551 1 180.0000771 15.1670000 2
17549 17548 17550 17552 1 180.0000771 15.1670000 2
17546 17550 17548 17549 4 180.0000771 4.6024000 2
17548 17550 17552 17553 1 180.0000771 15.1670000 2
17548 17550 17552 17554 1 180.0000771 15.1670000 2
17551 17550 17552 17553 1 180.0000771 15.1670000 2
17551 17550 17552 17554 1 180.0000771 15.1670000 2
17548 17552 17550 17551 4 180.0000771 4.6024000 2
17545 17552 17554 17555 4 180.0000771 4.6024000 2
17550 17552 17554 17555 1 180.0000771 15.1670000 2
17553 17552 17554 17555 1 180.0000771 15.1670000 2
17545 17554 17552 17550 1 180.0000771 15.1670000 2
17545 17554 17552 17553 1 180.0000771 15.1670000 2
17550 17554 17552 17553 4 180.0000771 4.6024000 2
17558 17559 17560 17561 1 180.0000771 15.1670000 2
17558 17559 17560 17562 1 180.0000771 15.1670000 2
17561 17559 17560 17562 4 180.0000771 4.6024000 2
17558 17559 17568 17560 4 180.0000771 4.6024000 2
17558 17559 17568 17566 1 180.0000771 15.1670000 2
17558 17559 17568 17569 1 180.0000771 15.1670000 2
17560 17559 17568 17566 1 180.0000771 15.1670000 2
17560 17559 17568 17569 1 180.0000771 15.1670000 2
17561 17560 17559 17568 1 180.0000771 15.1670000 2
17562 17560 17559 17568 1 180.0000771 15.1670000 2
17559 17560 17562 17563 1 180.0000771 15.1670000 2
17559 17560 17562 17564 1 180.0000771 15.1670000 2
17561 17560 17562 17563 1 180.0000771 15.1670000 2
17561 17560 17562 17564 1 180.0000771 15.1670000 2
17560 17562 17564 17565 1 180.0000771 15.1670000 2
17560 17562 17564 17566 1 180.0000771 15.1670000 2
17563 17562 17564 17565 1 180.0000771 15.1670000 2
17563 17562 17564 17566 1 180.0000771 15.1670000 2
17560 17564 17562 17563 4 180.0000771 4.6024000 2
17562 17564 17566 17567 1 180.0000771 15.1670000 2
17562 17564 17566 17568 1 180.0000771 15.1670000 2
17565 17564 17566 17567 1 180.0000771 15.1670000 2
17565 17564 17566 17568 1 180.0000771 15.1670000 2
17562 17566 17564 17565 4 180.0000771 4.6024000 2
17559 17566 17568 17569 4 180.0000771 4.6024000 2
17564 17566 17568 17569 1 180.0000771 15.1670000 2
17567 17566 17568 17569 1 180.0000771 15.1670000 2
17559 17568 17566 17564 1 180.0000771 15.1670000 2
17559 17568 17566 17567 1 180.0000771 15.1670000 2
17564 17568 17566 17567 4 180.0000771 4.6024000 2
17572 17573 17574 17575 1 180.0000771 15.1670000 2
17572 17573 17574 17576 1 180.0000771 15.1670000 2
17575 17573 17574 17576 4 180.0000771 4.6024000 2
17572 17573 17582 17574 4 180.0000771 4.6024000 2
17572 17573 17582 17580 1 180.0000771 15.1670000 2
17572 17573 17582 17583 1 180.0000771 15.1670000 2
17574 17573 17582 17580 1 180.0000771 15.1670000 2
17574 17573 17582 17583 1 180.0000771 15.1670000 2
17575 17574 17573 17582 1 180.0000771 15.1670000 2
17576 17574 17573 17582 1 180.0000771 15.1670000 2
17573 17574 17576 17577 1 180.0000771 15.1670000 2
17573 17574 17576 17578 1 180.0000771 15.1670000 2
17575 17574 17576 17577 1 180.0000771 15.1670000 2
17575 17574 17576 17578 1 180.0000771 15.1670000 2
17574 17576 17578 17579 1 180.0000771 15.1670000 2
17574 17576 17578 17580 1 180.0000771 15.1670000 2
17577 17576 17578 17579 1 180.0000771 15.1670000 2
17577 17576 17578 17580 1 180.0000771 15.1670000 2
17574 17578 17576 17577 4 180.0000771 4.6024000 2
17576 17578 17580 17581 1 180.0000771 15.1670000 2
17576 17578 17580 17582 1 180.0000771 15.1670000 2
17579 17578 17580 17581 1 180.0000771 15.1670000 2
17579 17578 17580 17582 1 180.0000771 15.1670000 2
17576 17580 17578 17579 4 180.0000771 4.6024000 2
17573 17580 17582 17583 4 180.0000771 4.6024000 2
17578 17580 17582 17583 1 180.0000771 15.1670000 2
17581 17580 17582 17583 1 180.0000771 15.1670000 2
17573 17582 17580 17578 1 180.0000771 15.1670000 2
17573 17582 17580 17581 1 180.0000771 15.1670000 2
17578 17582 17580 17581 4 180.0000771 4.6024000 2
17586 17587 17588 17589 1 180.0000771 15.1670000 2
17586 17587 17588 17590 1 180.0000771 15.1670000 2
17589 17587 17588 17590 4 180.0000771 4.6024000 2
17586 17587 17596 17588 4 180.0000771 4.6024000 2
17586 17587 17596 17594 1 180.0000771 15.1670000 2
17586 17587 17596 17597 1 180.0000771 15.1670000 2
17588 17587 17596 17594 1 180.0000771 15.1670000 2
17588 17587 17596 17597 1 180.0000771 15.1670000 2
17589 17588 17587 17596 1 180.0000771 15.1670000 2
17590 17588 17587 17596 1 180.0000771 15.1670000 2
17587 17588 17590 17591 1 180.0000771 15.1670000 2
17587 17588 17590 17592 1 180.0000771 15.1670000 2
17589 17588 17590 17591 1 180.0000771 15.1670000 2
17589 17588 17590 17592 1 180.0000771 15.1670000 2
17588 17590 17592 17593 1 180.0000771 15.1670000 2
17588 17590 17592 17594 1 180.0000771 15.1670000 2
17591 17590 17592 17593 1 180.0000771 15.1670000 2
17591 17590 17592 17594 1 180.0000771 15.1670000 2
17588 17592 17590 17591 4 180.0000771 4.6024000 2
17590 17592 17594 17595 1 180.0000771 15.1670000 2
17590 17592 17594 17596 1 180.0000771 15.1670000 2
17593 17592 17594 17595 1 180.0000771 15.1670000 2
17593 17592 17594 17596 1 180.0000771 15.1670000 2
17590 17594 17592 17593 4 180.0000771 4.6024000 2
17587 17594 17596 17597 4 180.0000771 4.6024000 2
17592 17594 17596 17597 1 180.0000771 15.1670000 2
17595 17594 17596 17597 1 180.0000771 15.1670000 2
17587 17596 17594 17592 1 180.0000771 15.1670000 2
17587 17596 17594 17595 1 180.0000771 15.1670000 2
17592 17596 17594 17595 4 180.0000771 4.6024000 2
17600 17601 17602 17603 1 180.0000771 15.1670000 2
17600 17601 17602 17604 1 180.0000771 15.1670000 2
17603 17601 17602 17604 4 180.0000771 4.6024000 2
17600 17601 17610 17602 4 180.0000771 4.6024000 2
17600 17601 17610 17608 1 180.0000771 15.1670000 2
17600 17601 17610 17611 1 180.0000771 15.1670000 2
17602 17601 17610 17608 1 180.0000771 15.1670000 2
17602 17601 17610 17611 1 180.0000771 15.1670000 2
17603 17602 17601 17610 1 180.0000771 15.1670000 2
17604 17602 17601 17610 1 180.0000771 15.1670000 2
17601 17602 17604 17605 1 180.0000771 15.1670000 2
17601 17602 17604 17606 1 180.0000771 15.1670000 2
17603 17602 17604 17605 1 180.0000771 15.1670000 2
17603 17602 17604 17606 1 180.0000771 15.1670000 2
17602 17604 17606 17607 1 180.0000771 15.1670000 2
17602 17604 17606 17608 1 180.0000771 15.1670000 2
17605 17604 17606 17607 1 180.0000771 15.1670000 2
17605 17604 17606 17608 1 180.0000771 15.1670000 2
17602 17606 17604 17605 4 180.0000771 4.6024000 2
17604 17606 17608 17609 1 180.0000771 15.1670000 2
17604 17606 17608 17610 1 180.0000771 15.1670000 2
17607 17606 17608 17609 1 180.0000771 15.1670000 2
17607 17606 17608 17610 1 180.0000771 15.1670000 2
17604 17608 17606 17607 4 180.0000771 4.6024000 2
17601 17608 17610 17611 4 180.0000771 4.6024000 2
17606 17608 17610 17611 1 180.0000771 15.1670000 2
17609 17608 17610 17611 1 180.0000771 15.1670000 2
17601 17610 17608 17606 1 180.0000771 15.1670000 2
17601 17610 17608 17609 1 180.0000771 15.1670000 2
17606 17610 17608 17609 4 180.0000771 4.6024000 2
17614 17615 17616 17617 1 180.0000771 15.1670000 2
17614 17615 17616 17618 1 180.0000771 15.1670000 2
17617 17615 17616 17618 4 180.0000771 4.6024000 2
17614 17615 17624 17616 4 180.0000771 4.6024000 2
17614 17615 17624 17622 1 180.0000771 15.1670000 2
17614 17615 17624 17625 1 180.0000771 15.1670000 2
17616 17615 17624 17622 1 180.0000771 15.1670000 2
17616 17615 17624 17625 1 180.0000771 15.1670000 2
17617 17616 17615 17624 1 180.0000771 15.1670000 2
17618 17616 17615 17624 1 180.0000771 15.1670000 2
17615 17616 17618 17619 1 180.0000771 15.1670000 2
17615 17616 17618 17620 1 180.0000771 15.1670000 2
17617 17616 17618 17619 1 180.0000771 15.1670000 2
17617 17616 17618 17620 1 180.0000771 15.1670000 2
17616 17618 17620 17621 1 180.0000771 15.1670000 2
17616 17618 17620 17622 1 180.0000771 15.1670000 2
17619 17618 17620 17621 1 180.0000771 15.1670000 2
17619 17618 17620 17622 1 180.0000771 15.1670000 2
17616 17620 17618 17619 4 180.0000771 4.6024000 2
17618 17620 17622 17623 1 180.0000771 15.1670000 2
17618 17620 17622 17624 1 180.0000771 15.1670000 2
17621 17620 17622 17623 1 180.0000771 15.1670000 2
17621 17620 17622 17624 1 180.0000771 15.1670000 2
17618 17622 17620 17621 4 180.0000771 4.6024000 2
17615 17622 17624 17625 4 180.0000771 4.6024000 2
17620 17622 17624 17625 1 180.0000771 15.1670000 2
17623 17622 17624 17625 1 180.0000771 15.1670000 2
17615 17624 17622 17620 1 180.0000771 15.1670000 2
17615 17624 17622 17623 1 180.0000771 15.1670000 2
17620 17624 17622 17623 4 180.0000771 4.6024000 2
17628 17629 17630 17631 1 180.0000771 15.1670000 2
17628 17629 17630 17632 1 180.0000771 15.1670000 2
17631 17629 17630 17632 4 180.0000771 4.6024000 2
17628 17629 17638 17630 4 180.0000771 4.6024000 2
17628 17629 17638 17636 1 180.0000771 15.1670000 2
17628 17629 17638 17639 1 180.0000771 15.1670000 2
17630 17629 17638 17636 1 180.0000771 15.1670000 2
17630 17629 17638 17639 1 180.0000771 15.1670000 2
17631 17630 17629 17638 1 180.0000771 15.1670000 2
17632 17630 17629 17638 1 180.0000771 15.1670000 2
17629 17630 17632 17633 1 180.0000771 15.1670000 2
17629 17630 17632 17634 1 180.0000771 15.1670000 2
17631 17630 17632 17633 1 180.0000771 15.1670000 2
17631 17630 17632 17634 1 180.0000771 15.1670000 2
17630 17632 17634 17635 1 180.0000771 15.1670000 2
17630 17632 17634 17636 1 180.0000771 15.1670000 2
17633 17632 17634 17635 1 180.0000771 15.1670000 2
17633 17632 17634 17636 1 180.0000771 15.1670000 2
17630 17634 17632 17633 4 180.0000771 4.6024000 2
17632 17634 17636 17637 1 180.0000771 15.1670000 2
17632 17634 17636 17638 1 180.0000771 15.1670000 2
17635 17634 17636 17637 1 180.0000771 15.1670000 2
17635 17634 17636 17638 1 180.0000771 15.1670000 2
17632 17636 17634 17635 4 180.0000771 4.6024000 2
17629 17636 17638 17639 4 180.0000771 4.6024000 2
17634 17636 17638 17639 1 180.0000771 15.1670000 2
17637 17636 17638 17639 1 180.0000771 15.1670000 2
17629 17638 17636 17634 1 180.0000771 15.1670000 2
17629 17638 17636 17637 1 180.0000771 15.1670000 2
17634 17638 17636 17637 4 180.0000771 4.6024000 2
17642 17643 17644 17645 1 180.0000771 15.1670000 2
17642 17643 17644 17646 1 180.0000771 15.1670000 2
17645 17643 17644 17646 4 180.0000771 4.6024000 2
17642 17643 17652 17644 4 180.0000771 4.6024000 2
17642 17643 17652 17650 1 180.0000771 15.1670000 2
17642 17643 17652 17653 1 180.0000771 15.1670000 2
17644 17643 17652 17650 1 180.0000771 15.1670000 2
17644 17643 17652 17653 1 180.0000771 15.1670000 2
17645 17644 17643 17652 1 180.0000771 15.1670000 2
17646 17644 17643 17652 1 180.0000771 15.1670000 2
17643 17644 17646 17647 1 180.0000771 15.1670000 2
17643 17644 17646 17648 1 180.0000771 15.1670000 2
17645 17644 17646 17647 1 180.0000771 15.1670000 2
17645 17644 17646 17648 1 180.0000771 15.1670000 2
17644 17646 17648 17649 1 180.0000771 15.1670000 2
17644 17646 17648 17650 1 180.0000771 15.1670000 2
17647 17646 17648 17649 1 180.0000771 15.1670000 2
17647 17646 17648 17650 1 180.0000771 15.1670000 2
17644 17648 17646 17647 4 180.0000771 4.6024000 2
17646 17648 17650 17651 1 180.0000771 15.1670000 2
17646 17648 17650 17652 1 180.0000771 15.1670000 2
17649 17648 17650 17651 1 180.0000771 15.1670000 2
17649 17648 17650 17652 1 180.0000771 15.1670000 2
17646 17650 17648 17649 4 180.0000771 4.6024000 2
17643 17650 17652 17653 4 180.0000771 4.6024000 2
17648 17650 17652 17653 1 180.0000771 15.1670000 2
17651 17650 17652 17653 1 180.0000771 15.1670000 2
17643 17652 17650 17648 1 180.0000771 15.1670000 2
17643 17652 17650 17651 1 180.0000771 15.1670000 2
17648 17652 17650 17651 4 180.0000771 4.6024000 2
17656 17657 17658 17659 1 180.0000771 15.1670000 2
17656 17657 17658 17660 1 180.0000771 15.1670000 2
17659 17657 17658 17660 4 180.0000771 4.6024000 2
17656 17657 17666 17658 4 180.0000771 4.6024000 2
17656 17657 17666 17664 1 180.0000771 15.1670000 2
17656 17657 17666 17667 1 180.0000771 15.1670000 2
17658 17657 17666 17664 1 180.0000771 15.1670000 2
17658 17657 17666 17667 1 180.0000771 15.1670000 2
17659 17658 17657 17666 1 180.0000771 15.1670000 2
17660 17658 17657 17666 1 180.0000771 15.1670000 2
17657 17658 17660 17661 1 180.0000771 15.1670000 2
17657 17658 17660 17662 1 180.0000771 15.1670000 2
17659 17658 17660 17661 1 180.0000771 15.1670000 2
17659 17658 17660 17662 1 180.0000771 15.1670000 2
17658 17660 17662 17663 1 180.0000771 15.1670000 2
17658 17660 17662 17664 1 180.0000771 15.1670000 2
17661 17660 17662 17663 1 180.0000771 15.1670000 2
17661 17660 17662 17664 1 180.0000771 15.1670000 2
17658 17662 17660 17661 4 180.0000771 4.6024000 2
17660 17662 17664 17665 1 180.0000771 15.1670000 2
17660 17662 17664 17666 1 180.0000771 15.1670000 2
17663 17662 17664 17665 1 180.0000771 15.1670000 2
17663 17662 17664 17666 1 180.0000771 15.1670000 2
17660 17664 17662 17663 4 180.0000771 4.6024000 2
17657 17664 17666 17667 4 180.0000771 4.6024000 2
17662 17664 17666 17667 1 180.0000771 15.1670000 2
17665 17664 17666 17667 1 180.0000771 15.1670000 2
17657 17666 17664 17662 1 180.0000771 15.1670000 2
17657 17666 17664 17665 1 180.0000771 15.1670000 2
17662 17666 17664 17665 4 180.0000771 4.6024000 2
17670 17671 17672 17673 1 180.0000771 15.1670000 2
17670 17671 17672 17674 1 180.0000771 15.1670000 2
17673 17671 17672 17674 4 180.0000771 4.6024000 2
17670 17671 17680 17672 4 180.0000771 4.6024000 2
17670 17671 17680 17678 1 180.0000771 15.1670000 2
17670 17671 17680 17681 1 180.0000771 15.1670000 2
17672 17671 17680 17678 1 180.0000771 15.1670000 2
17672 17671 17680 17681 1 180.0000771 15.1670000 2
17673 17672 17671 17680 1 180.0000771 15.1670000 2
17674 17672 17671 17680 1 180.0000771 15.1670000 2
17671 17672 17674 17675 1 180.0000771 15.1670000 2
17671 17672 17674 17676 1 180.0000771 15.1670000 2
17673 17672 17674 17675 1 180.0000771 15.1670000 2
17673 17672 17674 17676 1 180.0000771 15.1670000 2
17672 17674 17676 17677 1 180.0000771 15.1670000 2
17672 17674 17676 17678 1 180.0000771 15.1670000 2
17675 17674 17676 17677 1 180.0000771 15.1670000 2
17675 17674 17676 17678 1 180.0000771 15.1670000 2
17672 17676 17674 17675 4 180.0000771 4.6024000 2
17674 17676 17678 17679 1 180.0000771 15.1670000 2
17674 17676 17678 17680 1 180.0000771 15.1670000 2
17677 17676 17678 17679 1 180.0000771 15.1670000 2
17677 17676 17678 17680 1 180.0000771 15.1670000 2
17674 17678 17676 17677 4 180.0000771 4.6024000 2
17671 17678 17680 17681 4 180.0000771 4.6024000 2
17676 17678 17680 17681 1 180.0000771 15.1670000 2
17679 17678 17680 17681 1 180.0000771 15.1670000 2
17671 17680 17678 17676 1 180.0000771 15.1670000 2
17671 17680 17678 17679 1 180.0000771 15.1670000 2
17676 17680 17678 17679 4 180.0000771 4.6024000 2
17684 17685 17686 17687 1 180.0000771 15.1670000 2
17684 17685 17686 17688 1 180.0000771 15.1670000 2
17687 17685 17686 17688 4 180.0000771 4.6024000 2
17684 17685 17694 17686 4 180.0000771 4.6024000 2
17684 17685 17694 17692 1 180.0000771 15.1670000 2
17684 17685 17694 17695 1 180.0000771 15.1670000 2
17686 17685 17694 17692 1 180.0000771 15.1670000 2
17686 17685 17694 17695 1 180.0000771 15.1670000 2
17687 17686 17685 17694 1 180.0000771 15.1670000 2
17688 17686 17685 17694 1 180.0000771 15.1670000 2
17685 17686 17688 17689 1 180.0000771 15.1670000 2
17685 17686 17688 17690 1 180.0000771 15.1670000 2
17687 17686 17688 17689 1 180.0000771 15.1670000 2
17687 17686 17688 17690 1 180.0000771 15.1670000 2
17686 17688 17690 17691 1 180.0000771 15.1670000 2
17686 17688 17690 17692 1 180.0000771 15.1670000 2
17689 17688 17690 17691 1 180.0000771 15.1670000 2
17689 17688 17690 17692 1 180.0000771 15.1670000 2
17686 17690 17688 17689 4 180.0000771 4.6024000 2
17688 17690 17692 17693 1 180.0000771 15.1670000 2
17688 17690 17692 17694 1 180.0000771 15.1670000 2
17691 17690 17692 17693 1 180.0000771 15.1670000 2
17691 17690 17692 17694 1 180.0000771 15.1670000 2
17688 17692 17690 17691 4 180.0000771 4.6024000 2
17685 17692 17694 17695 4 180.0000771 4.6024000 2
17690 17692 17694 17695 1 180.0000771 15.1670000 2
17693 17692 17694 17695 1 180.0000771 15.1670000 2
17685 17694 17692 17690 1 180.0000771 15.1670000 2
17685 17694 17692 17693 1 180.0000771 15.1670000 2
17690 17694 17692 17693 4 180.0000771 4.6024000 2
17698 17699 17700 17701 1 180.0000771 15.1670000 2
17698 17699 17700 17702 1 180.0000771 15.1670000 2
17701 17699 17700 17702 4 180.0000771 4.6024000 2
17698 17699 17708 17700 4 180.0000771 4.6024000 2
17698 17699 17708 17706 1 180.0000771 15.1670000 2
17698 17699 17708 17709 1 180.0000771 15.1670000 2
17700 17699 17708 17706 1 180.0000771 15.1670000 2
17700 17699 17708 17709 1 180.0000771 15.1670000 2
17701 17700 17699 17708 1 180.0000771 15.1670000 2
17702 17700 17699 17708 1 180.0000771 15.1670000 2
17699 17700 17702 17703 1 180.0000771 15.1670000 2
17699 17700 17702 17704 1 180.0000771 15.1670000 2
17701 17700 17702 17703 1 180.0000771 15.1670000 2
17701 17700 17702 17704 1 180.0000771 15.1670000 2
17700 17702 17704 17705 1 180.0000771 15.1670000 2
17700 17702 17704 17706 1 180.0000771 15.1670000 2
17703 17702 17704 17705 1 180.0000771 15.1670000 2
17703 17702 17704 17706 1 180.0000771 15.1670000 2
17700 17704 17702 17703 4 180.0000771 4.6024000 2
17702 17704 17706 17707 1 180.0000771 15.1670000 2
17702 17704 17706 17708 1 180.0000771 15.1670000 2
17705 17704 17706 17707 1 180.0000771 15.1670000 2
17705 17704 17706 17708 1 180.0000771 15.1670000 2
17702 17706 17704 17705 4 180.0000771 4.6024000 2
17699 17706 17708 17709 4 180.0000771 4.6024000 2
17704 17706 17708 17709 1 180.0000771 15.1670000 2
17707 17706 17708 17709 1 180.0000771 15.1670000 2
17699 17708 17706 17704 1 180.0000771 15.1670000 2
17699 17708 17706 17707 1 180.0000771 15.1670000 2
17704 17708 17706 17707 4 180.0000771 4.6024000 2
17712 17713 17714 17715 1 180.0000771 15.1670000 2
17712 17713 17714 17716 1 180.0000771 15.1670000 2
17715 17713 17714 17716 4 180.0000771 4.6024000 2
17712 17713 17722 17714 4 180.0000771 4.6024000 2
17712 17713 17722 17720 1 180.0000771 15.1670000 2
17712 17713 17722 17723 1 180.0000771 15.1670000 2
17714 17713 17722 17720 1 180.0000771 15.1670000 2
17714 17713 17722 17723 1 180.0000771 15.1670000 2
17715 17714 17713 17722 1 180.0000771 15.1670000 2
17716 17714 17713 17722 1 180.0000771 15.1670000 2
17713 17714 17716 17717 1 180.0000771 15.1670000 2
17713 17714 17716 17718 1 180.0000771 15.1670000 2
17715 17714 17716 17717 1 180.0000771 15.1670000 2
17715 17714 17716 17718 1 180.0000771 15.1670000 2
17714 17716 17718 17719 1 180.0000771 15.1670000 2
17714 17716 17718 17720 1 180.0000771 15.1670000 2
17717 17716 17718 17719 1 180.0000771 15.1670000 2
17717 17716 17718 17720 1 180.0000771 15.1670000 2
17714 17718 17716 17717 4 180.0000771 4.6024000 2
17716 17718 17720 17721 1 180.0000771 15.1670000 2
17716 17718 17720 17722 1 180.0000771 15.1670000 2
17719 17718 17720 17721 1 180.0000771 15.1670000 2
17719 17718 17720 17722 1 180.0000771 15.1670000 2
17716 17720 17718 17719 4 180.0000771 4.6024000 2
17713 17720 17722 17723 4 180.0000771 4.6024000 2
17718 17720 17722 17723 1 180.0000771 15.1670000 2
17721 17720 17722 17723 1 180.0000771 15.1670000 2
17713 17722 17720 17718 1 180.0000771 15.1670000 2
17713 17722 17720 17721 1 180.0000771 15.1670000 2
17718 17722 17720 17721 4 180.0000771 4.6024000 2
17726 17727 17728 17729 1 180.0000771 15.1670000 2
17726 17727 17728 17730 1 180.0000771 15.1670000 2
17729 17727 17728 17730 4 180.0000771 4.6024000 2
17726 17727 17736 17728 4 180.0000771 4.6024000 2
17726 17727 17736 17734 1 180.0000771 15.1670000 2
17726 17727 17736 17737 1 180.0000771 15.1670000 2
17728 17727 17736 17734 1 180.0000771 15.1670000 2
17728 17727 17736 17737 1 180.0000771 15.1670000 2
17729 17728 17727 17736 1 180.0000771 15.1670000 2
17730 17728 17727 17736 1 180.0000771 15.1670000 2
17727 17728 17730 17731 1 180.0000771 15.1670000 2
17727 17728 17730 17732 1 180.0000771 15.1670000 2
17729 17728 17730 17731 1 180.0000771 15.1670000 2
17729 17728 17730 17732 1 180.0000771 15.1670000 2
17728 17730 17732 17733 1 180.0000771 15.1670000 2
17728 17730 17732 17734 1 180.0000771 15.1670000 2
17731 17730 17732 17733 1 180.0000771 15.1670000 2
17731 17730 17732 17734 1 180.0000771 15.1670000 2
17728 17732 17730 17731 4 180.0000771 4.6024000 2
17730 17732 17734 17735 1 180.0000771 15.1670000 2
17730 17732 17734 17736 1 180.0000771 15.1670000 2
17733 17732 17734 17735 1 180.0000771 15.1670000 2
17733 17732 17734 17736 1 180.0000771 15.1670000 2
17730 17734 17732 17733 4 180.0000771 4.6024000 2
17727 17734 17736 17737 4 180.0000771 4.6024000 2
17732 17734 17736 17737 1 180.0000771 15.1670000 2
17735 17734 17736 17737 1 180.0000771 15.1670000 2
17727 17736 17734 17732 1 180.0000771 15.1670000 2
17727 17736 17734 17735 1 180.0000771 15.1670000 2
17732 17736 17734 17735 4 180.0000771 4.6024000 2
17740 17741 17742 17743 1 180.0000771 15.1670000 2
17740 17741 17742 17744 1 180.0000771 15.1670000 2
17743 17741 17742 17744 4 180.0000771 4.6024000 2
17740 17741 17750 17742 4 180.0000771 4.6024000 2
17740 17741 17750 17748 1 180.0000771 15.1670000 2
17740 17741 17750 17751 1 180.0000771 15.1670000 2
17742 17741 17750 17748 1 180.0000771 15.1670000 2
17742 17741 17750 17751 1 180.0000771 15.1670000 2
17743 17742 17741 17750 1 180.0000771 15.1670000 2
17744 17742 17741 17750 1 180.0000771 15.1670000 2
17741 17742 17744 17745 1 180.0000771 15.1670000 2
17741 17742 17744 17746 1 180.0000771 15.1670000 2
17743 17742 17744 17745 1 180.0000771 15.1670000 2
17743 17742 17744 17746 1 180.0000771 15.1670000 2
17742 17744 17746 17747 1 180.0000771 15.1670000 2
17742 17744 17746 17748 1 180.0000771 15.1670000 2
17745 17744 17746 17747 1 180.0000771 15.1670000 2
17745 17744 17746 17748 1 180.0000771 15.1670000 2
17742 17746 17744 17745 4 180.0000771 4.6024000 2
17744 17746 17748 17749 1 180.0000771 15.1670000 2
17744 17746 17748 17750 1 180.0000771 15.1670000 2
17747 17746 17748 17749 1 180.0000771 15.1670000 2
17747 17746 17748 17750 1 180.0000771 15.1670000 2
17744 17748 17746 17747 4 180.0000771 4.6024000 2
17741 17748 17750 17751 4 180.0000771 4.6024000 2
17746 17748 17750 17751 1 180.0000771 15.1670000 2
17749 17748 17750 17751 1 180.0000771 15.1670000 2
17741 17750 17748 17746 1 180.0000771 15.1670000 2
17741 17750 17748 17749 1 180.0000771 15.1670000 2
17746 17750 17748 17749 4 180.0000771 4.6024000 2
17754 17755 17756 17757 1 180.0000771 15.1670000 2
17754 17755 17756 17758 1 180.0000771 15.1670000 2
17757 17755 17756 17758 4 180.0000771 4.6024000 2
17754 17755 17764 17756 4 180.0000771 4.6024000 2
17754 17755 17764 17762 1 180.0000771 15.1670000 2
17754 17755 17764 17765 1 180.0000771 15.1670000 2
17756 17755 17764 17762 1 180.0000771 15.1670000 2
17756 17755 17764 17765 1 180.0000771 15.1670000 2
17757 17756 17755 17764 1 180.0000771 15.1670000 2
17758 17756 17755 17764 1 180.0000771 15.1670000 2
17755 17756 17758 17759 1 180.0000771 15.1670000 2
17755 17756 17758 17760 1 180.0000771 15.1670000 2
17757 17756 17758 17759 1 180.0000771 15.1670000 2
17757 17756 17758 17760 1 180.0000771 15.1670000 2
17756 17758 17760 17761 1 180.0000771 15.1670000 2
17756 17758 17760 17762 1 180.0000771 15.1670000 2
17759 17758 17760 17761 1 180.0000771 15.1670000 2
17759 17758 17760 17762 1 180.0000771 15.1670000 2
17756 17760 17758 17759 4 180.0000771 4.6024000 2
17758 17760 17762 17763 1 180.0000771 15.1670000 2
17758 17760 17762 17764 1 180.0000771 15.1670000 2
17761 17760 17762 17763 1 180.0000771 15.1670000 2
17761 17760 17762 17764 1 180.0000771 15.1670000 2
17758 17762 17760 17761 4 180.0000771 4.6024000 2
17755 17762 17764 17765 4 180.0000771 4.6024000 2
17760 17762 17764 17765 1 180.0000771 15.1670000 2
17763 17762 17764 17765 1 180.0000771 15.1670000 2
17755 17764 17762 17760 1 180.0000771 15.1670000 2
17755 17764 17762 17763 1 180.0000771 15.1670000 2
17760 17764 17762 17763 4 180.0000771 4.6024000 2
17768 17769 17770 17771 1 180.0000771 15.1670000 2
17768 17769 17770 17772 1 180.0000771 15.1670000 2
17771 17769 17770 17772 4 180.0000771 4.6024000 2
17768 17769 17778 17770 4 180.0000771 4.6024000 2
17768 17769 17778 17776 1 180.0000771 15.1670000 2
17768 17769 17778 17779 1 180.0000771 15.1670000 2
17770 17769 17778 17776 1 180.0000771 15.1670000 2
17770 17769 17778 17779 1 180.0000771 15.1670000 2
17771 17770 17769 17778 1 180.0000771 15.1670000 2
17772 17770 17769 17778 1 180.0000771 15.1670000 2
17769 17770 17772 17773 1 180.0000771 15.1670000 2
17769 17770 17772 17774 1 180.0000771 15.1670000 2
17771 17770 17772 17773 1 180.0000771 15.1670000 2
17771 17770 17772 17774 1 180.0000771 15.1670000 2
17770 17772 17774 17775 1 180.0000771 15.1670000 2
17770 17772 17774 17776 1 180.0000771 15.1670000 2
17773 17772 17774 17775 1 180.0000771 15.1670000 2
17773 17772 17774 17776 1 180.0000771 15.1670000 2
17770 17774 17772 17773 4 180.0000771 4.6024000 2
17772 17774 17776 17777 1 180.0000771 15.1670000 2
17772 17774 17776 17778 1 180.0000771 15.1670000 2
17775 17774 17776 17777 1 180.0000771 15.1670000 2
17775 17774 17776 17778 1 180.0000771 15.1670000 2
17772 17776 17774 17775 4 180.0000771 4.6024000 2
17769 17776 17778 17779 4 180.0000771 4.6024000 2
17774 17776 17778 17779 1 180.0000771 15.1670000 2
17777 17776 17778 17779 1 180.0000771 15.1670000 2
17769 17778 17776 17774 1 180.0000771 15.1670000 2
17769 17778 17776 17777 1 180.0000771 15.1670000 2
17774 17778 17776 17777 4 180.0000771 4.6024000 2
17782 17783 17784 17785 1 180.0000771 15.1670000 2
17782 17783 17784 17786 1 180.0000771 15.1670000 2
17785 17783 17784 17786 4 180.0000771 4.6024000 2
17782 17783 17792 17784 4 180.0000771 4.6024000 2
17782 17783 17792 17790 1 180.0000771 15.1670000 2
17782 17783 17792 17793 1 180.0000771 15.1670000 2
17784 17783 17792 17790 1 180.0000771 15.1670000 2
17784 17783 17792 17793 1 180.0000771 15.1670000 2
17785 17784 17783 17792 1 180.0000771 15.1670000 2
17786 17784 17783 17792 1 180.0000771 15.1670000 2
17783 17784 17786 17787 1 180.0000771 15.1670000 2
17783 17784 17786 17788 1 180.0000771 15.1670000 2
17785 17784 17786 17787 1 180.0000771 15.1670000 2
17785 17784 17786 17788 1 180.0000771 15.1670000 2
17784 17786 17788 17789 1 180.0000771 15.1670000 2
17784 17786 17788 17790 1 180.0000771 15.1670000 2
17787 17786 17788 17789 1 180.0000771 15.1670000 2
17787 17786 17788 17790 1 180.0000771 15.1670000 2
17784 17788 17786 17787 4 180.0000771 4.6024000 2
17786 17788 17790 17791 1 180.0000771 15.1670000 2
17786 17788 17790 17792 1 180.0000771 15.1670000 2
17789 17788 17790 17791 1 180.0000771 15.1670000 2
17789 17788 17790 17792 1 180.0000771 15.1670000 2
17786 17790 17788 17789 4 180.0000771 4.6024000 2
17783 17790 17792 17793 4 180.0000771 4.6024000 2
17788 17790 17792 17793 1 180.0000771 15.1670000 2
17791 17790 17792 17793 1 180.0000771 15.1670000 2
17783 17792 17790 17788 1 180.0000771 15.1670000 2
17783 17792 17790 17791 1 180.0000771 15.1670000 2
17788 17792 17790 17791 4 180.0000771 4.6024000 2
17796 17797 17798 17799 1 180.0000771 15.1670000 2
17796 17797 17798 17800 1 180.0000771 15.1670000 2
17799 17797 17798 17800 4 180.0000771 4.6024000 2
17796 17797 17806 17798 4 180.0000771 4.6024000 2
17796 17797 17806 17804 1 180.0000771 15.1670000 2
17796 17797 17806 17807 1 180.0000771 15.1670000 2
17798 17797 17806 17804 1 180.0000771 15.1670000 2
17798 17797 17806 17807 1 180.0000771 15.1670000 2
17799 17798 17797 17806 1 180.0000771 15.1670000 2
17800 17798 17797 17806 1 180.0000771 15.1670000 2
17797 17798 17800 17801 1 180.0000771 15.1670000 2
17797 17798 17800 17802 1 180.0000771 15.1670000 2
17799 17798 17800 17801 1 180.0000771 15.1670000 2
17799 17798 17800 17802 1 180.0000771 15.1670000 2
17798 17800 17802 17803 1 180.0000771 15.1670000 2
17798 17800 17802 17804 1 180.0000771 15.1670000 2
17801 17800 17802 17803 1 180.0000771 15.1670000 2
17801 17800 17802 17804 1 180.0000771 15.1670000 2
17798 17802 17800 17801 4 180.0000771 4.6024000 2
17800 17802 17804 17805 1 180.0000771 15.1670000 2
17800 17802 17804 17806 1 180.0000771 15.1670000 2
17803 17802 17804 17805 1 180.0000771 15.1670000 2
17803 17802 17804 17806 1 180.0000771 15.1670000 2
17800 17804 17802 17803 4 180.0000771 4.6024000 2
17797 17804 17806 17807 4 180.0000771 4.6024000 2
17802 17804 17806 17807 1 180.0000771 15.1670000 2
17805 17804 17806 17807 1 180.0000771 15.1670000 2
17797 17806 17804 17802 1 180.0000771 15.1670000 2
17797 17806 17804 17805 1 180.0000771 15.1670000 2
17802 17806 17804 17805 4 180.0000771 4.6024000 2
17810 17811 17812 17813 1 180.0000771 15.1670000 2
17810 17811 17812 17814 1 180.0000771 15.1670000 2
17813 17811 17812 17814 4 180.0000771 4.6024000 2
17810 17811 17820 17812 4 180.0000771 4.6024000 2
17810 17811 17820 17818 1 180.0000771 15.1670000 2
17810 17811 17820 17821 1 180.0000771 15.1670000 2
17812 17811 17820 17818 1 180.0000771 15.1670000 2
17812 17811 17820 17821 1 180.0000771 15.1670000 2
17813 17812 17811 17820 1 180.0000771 15.1670000 2
17814 17812 17811 17820 1 180.0000771 15.1670000 2
17811 17812 17814 17815 1 180.0000771 15.1670000 2
17811 17812 17814 17816 1 180.0000771 15.1670000 2
17813 17812 17814 17815 1 180.0000771 15.1670000 2
17813 17812 17814 17816 1 180.0000771 15.1670000 2
17812 17814 17816 17817 1 180.0000771 15.1670000 2
17812 17814 17816 17818 1 180.0000771 15.1670000 2
17815 17814 17816 17817 1 180.0000771 15.1670000 2
17815 17814 17816 17818 1 180.0000771 15.1670000 2
17812 17816 17814 17815 4 180.0000771 4.6024000 2
17814 17816 17818 17819 1 180.0000771 15.1670000 2
17814 17816 17818 17820 1 180.0000771 15.1670000 2
17817 17816 17818 17819 1 180.0000771 15.1670000 2
17817 17816 17818 17820 1 180.0000771 15.1670000 2
17814 17818 17816 17817 4 180.0000771 4.6024000 2
17811 17818 17820 17821 4 180.0000771 4.6024000 2
17816 17818 17820 17821 1 180.0000771 15.1670000 2
17819 17818 17820 17821 1 180.0000771 15.1670000 2
17811 17820 17818 17816 1 180.0000771 15.1670000 2
17811 17820 17818 17819 1 180.0000771 15.1670000 2
17816 17820 17818 17819 4 180.0000771 4.6024000 2
17824 17825 17826 17827 1 180.0000771 15.1670000 2
17824 17825 17826 17828 1 180.0000771 15.1670000 2
17827 17825 17826 17828 4 180.0000771 4.6024000 2
17824 17825 17834 17826 4 180.0000771 4.6024000 2
17824 17825 17834 17832 1 180.0000771 15.1670000 2
17824 17825 17834 17835 1 180.0000771 15.1670000 2
17826 17825 17834 17832 1 180.0000771 15.1670000 2
17826 17825 17834 17835 1 180.0000771 15.1670000 2
17827 17826 17825 17834 1 180.0000771 15.1670000 2
17828 17826 17825 17834 1 180.0000771 15.1670000 2
17825 17826 17828 17829 1 180.0000771 15.1670000 2
17825 17826 17828 17830 1 180.0000771 15.1670000 2
17827 17826 17828 17829 1 180.0000771 15.1670000 2
17827 17826 17828 17830 1 180.0000771 15.1670000 2
17826 17828 17830 17831 1 180.0000771 15.1670000 2
17826 17828 17830 17832 1 180.0000771 15.1670000 2
17829 17828 17830 17831 1 180.0000771 15.1670000 2
17829 17828 17830 17832 1 180.0000771 15.1670000 2
17826 17830 17828 17829 4 180.0000771 4.6024000 2
17828 17830 17832 17833 1 180.0000771 15.1670000 2
17828 17830 17832 17834 1 180.0000771 15.1670000 2
17831 17830 17832 17833 1 180.0000771 15.1670000 2
17831 17830 17832 17834 1 180.0000771 15.1670000 2
17828 17832 17830 17831 4 180.0000771 4.6024000 2
17825 17832 17834 17835 4 180.0000771 4.6024000 2
17830 17832 17834 17835 1 180.0000771 15.1670000 2
17833 17832 17834 17835 1 180.0000771 15.1670000 2
17825 17834 17832 17830 1 180.0000771 15.1670000 2
17825 17834 17832 17833 1 180.0000771 15.1670000 2
17830 17834 17832 17833 4 180.0000771 4.6024000 2
17838 17839 17840 17841 1 180.0000771 15.1670000 2
17838 17839 17840 17842 1 180.0000771 15.1670000 2
17841 17839 17840 17842 4 180.0000771 4.6024000 2
17838 17839 17848 17840 4 180.0000771 4.6024000 2
17838 17839 17848 17846 1 180.0000771 15.1670000 2
17838 17839 17848 17849 1 180.0000771 15.1670000 2
17840 17839 17848 17846 1 180.0000771 15.1670000 2
17840 17839 17848 17849 1 180.0000771 15.1670000 2
17841 17840 17839 17848 1 180.0000771 15.1670000 2
17842 17840 17839 17848 1 180.0000771 15.1670000 2
17839 17840 17842 17843 1 180.0000771 15.1670000 2
17839 17840 17842 17844 1 180.0000771 15.1670000 2
17841 17840 17842 17843 1 180.0000771 15.1670000 2
17841 17840 17842 17844 1 180.0000771 15.1670000 2
17840 17842 17844 17845 1 180.0000771 15.1670000 2
17840 17842 17844 17846 1 180.0000771 15.1670000 2
17843 17842 17844 17845 1 180.0000771 15.1670000 2
17843 17842 17844 17846 1 180.0000771 15.1670000 2
17840 17844 17842 17843 4 180.0000771 4.6024000 2
17842 17844 17846 17847 1 180.0000771 15.1670000 2
17842 17844 17846 17848 1 180.0000771 15.1670000 2
17845 17844 17846 17847 1 180.0000771 15.1670000 2
17845 17844 17846 17848 1 180.0000771 15.1670000 2
17842 17846 17844 17845 4 180.0000771 4.6024000 2
17839 17846 17848 17849 4 180.0000771 4.6024000 2
17844 17846 17848 17849 1 180.0000771 15.1670000 2
17847 17846 17848 17849 1 180.0000771 15.1670000 2
17839 17848 17846 17844 1 180.0000771 15.1670000 2
17839 17848 17846 17847 1 180.0000771 15.1670000 2
17844 17848 17846 17847 4 180.0000771 4.6024000 2
17852 17853 17854 17855 1 180.0000771 15.1670000 2
17852 17853 17854 17856 1 180.0000771 15.1670000 2
17855 17853 17854 17856 4 180.0000771 4.6024000 2
17852 17853 17862 17854 4 180.0000771 4.6024000 2
17852 17853 17862 17860 1 180.0000771 15.1670000 2
17852 17853 17862 17863 1 180.0000771 15.1670000 2
17854 17853 17862 17860 1 180.0000771 15.1670000 2
17854 17853 17862 17863 1 180.0000771 15.1670000 2
17855 17854 17853 17862 1 180.0000771 15.1670000 2
17856 17854 17853 17862 1 180.0000771 15.1670000 2
17853 17854 17856 17857 1 180.0000771 15.1670000 2
17853 17854 17856 17858 1 180.0000771 15.1670000 2
17855 17854 17856 17857 1 180.0000771 15.1670000 2
17855 17854 17856 17858 1 180.0000771 15.1670000 2
17854 17856 17858 17859 1 180.0000771 15.1670000 2
17854 17856 17858 17860 1 180.0000771 15.1670000 2
17857 17856 17858 17859 1 180.0000771 15.1670000 2
17857 17856 17858 17860 1 180.0000771 15.1670000 2
17854 17858 17856 17857 4 180.0000771 4.6024000 2
17856 17858 17860 17861 1 180.0000771 15.1670000 2
17856 17858 17860 17862 1 180.0000771 15.1670000 2
17859 17858 17860 17861 1 180.0000771 15.1670000 2
17859 17858 17860 17862 1 180.0000771 15.1670000 2
17856 17860 17858 17859 4 180.0000771 4.6024000 2
17853 17860 17862 17863 4 180.0000771 4.6024000 2
17858 17860 17862 17863 1 180.0000771 15.1670000 2
17861 17860 17862 17863 1 180.0000771 15.1670000 2
17853 17862 17860 17858 1 180.0000771 15.1670000 2
17853 17862 17860 17861 1 180.0000771 15.1670000 2
17858 17862 17860 17861 4 180.0000771 4.6024000 2
17866 17867 17868 17869 1 180.0000771 15.1670000 2
17866 17867 17868 17870 1 180.0000771 15.1670000 2
17869 17867 17868 17870 4 180.0000771 4.6024000 2
17866 17867 17876 17868 4 180.0000771 4.6024000 2
17866 17867 17876 17874 1 180.0000771 15.1670000 2
17866 17867 17876 17877 1 180.0000771 15.1670000 2
17868 17867 17876 17874 1 180.0000771 15.1670000 2
17868 17867 17876 17877 1 180.0000771 15.1670000 2
17869 17868 17867 17876 1 180.0000771 15.1670000 2
17870 17868 17867 17876 1 180.0000771 15.1670000 2
17867 17868 17870 17871 1 180.0000771 15.1670000 2
17867 17868 17870 17872 1 180.0000771 15.1670000 2
17869 17868 17870 17871 1 180.0000771 15.1670000 2
17869 17868 17870 17872 1 180.0000771 15.1670000 2
17868 17870 17872 17873 1 180.0000771 15.1670000 2
17868 17870 17872 17874 1 180.0000771 15.1670000 2
17871 17870 17872 17873 1 180.0000771 15.1670000 2
17871 17870 17872 17874 1 180.0000771 15.1670000 2
17868 17872 17870 17871 4 180.0000771 4.6024000 2
17870 17872 17874 17875 1 180.0000771 15.1670000 2
17870 17872 17874 17876 1 180.0000771 15.1670000 2
17873 17872 17874 17875 1 180.0000771 15.1670000 2
17873 17872 17874 17876 1 180.0000771 15.1670000 2
17870 17874 17872 17873 4 180.0000771 4.6024000 2
17867 17874 17876 17877 4 180.0000771 4.6024000 2
17872 17874 17876 17877 1 180.0000771 15.1670000 2
17875 17874 17876 17877 1 180.0000771 15.1670000 2
17867 17876 17874 17872 1 180.0000771 15.1670000 2
17867 17876 17874 17875 1 180.0000771 15.1670000 2
17872 17876 17874 17875 4 180.0000771 4.6024000 2
17880 17881 17882 17883 1 180.0000771 15.1670000 2
17880 17881 17882 17884 1 180.0000771 15.1670000 2
17883 17881 17882 17884 4 180.0000771 4.6024000 2
17880 17881 17890 17882 4 180.0000771 4.6024000 2
17880 17881 17890 17888 1 180.0000771 15.1670000 2
17880 17881 17890 17891 1 180.0000771 15.1670000 2
17882 17881 17890 17888 1 180.0000771 15.1670000 2
17882 17881 17890 17891 1 180.0000771 15.1670000 2
17883 17882 17881 17890 1 180.0000771 15.1670000 2
17884 17882 17881 17890 1 180.0000771 15.1670000 2
17881 17882 17884 17885 1 180.0000771 15.1670000 2
17881 17882 17884 17886 1 180.0000771 15.1670000 2
17883 17882 17884 17885 1 180.0000771 15.1670000 2
17883 17882 17884 17886 1 180.0000771 15.1670000 2
17882 17884 17886 17887 1 180.0000771 15.1670000 2
17882 17884 17886 17888 1 180.0000771 15.1670000 2
17885 17884 17886 17887 1 180.0000771 15.1670000 2
17885 17884 17886 17888 1 180.0000771 15.1670000 2
17882 17886 17884 17885 4 180.0000771 4.6024000 2
17884 17886 17888 17889 1 180.0000771 15.1670000 2
17884 17886 17888 17890 1 180.0000771 15.1670000 2
17887 17886 17888 17889 1 180.0000771 15.1670000 2
17887 17886 17888 17890 1 180.0000771 15.1670000 2
17884 17888 17886 17887 4 180.0000771 4.6024000 2
17881 17888 17890 17891 4 180.0000771 4.6024000 2
17886 17888 17890 17891 1 180.0000771 15.1670000 2
17889 17888 17890 17891 1 180.0000771 15.1670000 2
17881 17890 17888 17886 1 180.0000771 15.1670000 2
17881 17890 17888 17889 1 180.0000771 15.1670000 2
17886 17890 17888 17889 4 180.0000771 4.6024000 2
17894 17895 17896 17897 1 180.0000771 15.1670000 2
17894 17895 17896 17898 1 180.0000771 15.1670000 2
17897 17895 17896 17898 4 180.0000771 4.6024000 2
17894 17895 17904 17896 4 180.0000771 4.6024000 2
17894 17895 17904 17902 1 180.0000771 15.1670000 2
17894 17895 17904 17905 1 180.0000771 15.1670000 2
17896 17895 17904 17902 1 180.0000771 15.1670000 2
17896 17895 17904 17905 1 180.0000771 15.1670000 2
17897 17896 17895 17904 1 180.0000771 15.1670000 2
17898 17896 17895 17904 1 180.0000771 15.1670000 2
17895 17896 17898 17899 1 180.0000771 15.1670000 2
17895 17896 17898 17900 1 180.0000771 15.1670000 2
17897 17896 17898 17899 1 180.0000771 15.1670000 2
17897 17896 17898 17900 1 180.0000771 15.1670000 2
17896 17898 17900 17901 1 180.0000771 15.1670000 2
17896 17898 17900 17902 1 180.0000771 15.1670000 2
17899 17898 17900 17901 1 180.0000771 15.1670000 2
17899 17898 17900 17902 1 180.0000771 15.1670000 2
17896 17900 17898 17899 4 180.0000771 4.6024000 2
17898 17900 17902 17903 1 180.0000771 15.1670000 2
17898 17900 17902 17904 1 180.0000771 15.1670000 2
17901 17900 17902 17903 1 180.0000771 15.1670000 2
17901 17900 17902 17904 1 180.0000771 15.1670000 2
17898 17902 17900 17901 4 180.0000771 4.6024000 2
17895 17902 17904 17905 4 180.0000771 4.6024000 2
17900 17902 17904 17905 1 180.0000771 15.1670000 2
17903 17902 17904 17905 1 180.0000771 15.1670000 2
17895 17904 17902 17900 1 180.0000771 15.1670000 2
17895 17904 17902 17903 1 180.0000771 15.1670000 2
17900 17904 17902 17903 4 180.0000771 4.6024000 2
17908 17909 17910 17911 1 180.0000771 15.1670000 2
17908 17909 17910 17912 1 180.0000771 15.1670000 2
17911 17909 17910 17912 4 180.0000771 4.6024000 2
17908 17909 17918 17910 4 180.0000771 4.6024000 2
17908 17909 17918 17916 1 180.0000771 15.1670000 2
17908 17909 17918 17919 1 180.0000771 15.1670000 2
17910 17909 17918 17916 1 180.0000771 15.1670000 2
17910 17909 17918 17919 1 180.0000771 15.1670000 2
17911 17910 17909 17918 1 180.0000771 15.1670000 2
17912 17910 17909 17918 1 180.0000771 15.1670000 2
17909 17910 17912 17913 1 180.0000771 15.1670000 2
17909 17910 17912 17914 1 180.0000771 15.1670000 2
17911 17910 17912 17913 1 180.0000771 15.1670000 2
17911 17910 17912 17914 1 180.0000771 15.1670000 2
17910 17912 17914 17915 1 180.0000771 15.1670000 2
17910 17912 17914 17916 1 180.0000771 15.1670000 2
17913 17912 17914 17915 1 180.0000771 15.1670000 2
17913 17912 17914 17916 1 180.0000771 15.1670000 2
17910 17914 17912 17913 4 180.0000771 4.6024000 2
17912 17914 17916 17917 1 180.0000771 15.1670000 2
17912 17914 17916 17918 1 180.0000771 15.1670000 2
17915 17914 17916 17917 1 180.0000771 15.1670000 2
17915 17914 17916 17918 1 180.0000771 15.1670000 2
17912 17916 17914 17915 4 180.0000771 4.6024000 2
17909 17916 17918 17919 4 180.0000771 4.6024000 2
17914 17916 17918 17919 1 180.0000771 15.1670000 2
17917 17916 17918 17919 1 180.0000771 15.1670000 2
17909 17918 17916 17914 1 180.0000771 15.1670000 2
17909 17918 17916 17917 1 180.0000771 15.1670000 2
17914 17918 17916 17917 4 180.0000771 4.6024000 2
17922 17923 17924 17925 1 180.0000771 15.1670000 2
17922 17923 17924 17926 1 180.0000771 15.1670000 2
17925 17923 17924 17926 4 180.0000771 4.6024000 2
17922 17923 17932 17924 4 180.0000771 4.6024000 2
17922 17923 17932 17930 1 180.0000771 15.1670000 2
17922 17923 17932 17933 1 180.0000771 15.1670000 2
17924 17923 17932 17930 1 180.0000771 15.1670000 2
17924 17923 17932 17933 1 180.0000771 15.1670000 2
17925 17924 17923 17932 1 180.0000771 15.1670000 2
17926 17924 17923 17932 1 180.0000771 15.1670000 2
17923 17924 17926 17927 1 180.0000771 15.1670000 2
17923 17924 17926 17928 1 180.0000771 15.1670000 2
17925 17924 17926 17927 1 180.0000771 15.1670000 2
17925 17924 17926 17928 1 180.0000771 15.1670000 2
17924 17926 17928 17929 1 180.0000771 15.1670000 2
17924 17926 17928 17930 1 180.0000771 15.1670000 2
17927 17926 17928 17929 1 180.0000771 15.1670000 2
17927 17926 17928 17930 1 180.0000771 15.1670000 2
17924 17928 17926 17927 4 180.0000771 4.6024000 2
17926 17928 17930 17931 1 180.0000771 15.1670000 2
17926 17928 17930 17932 1 180.0000771 15.1670000 2
17929 17928 17930 17931 1 180.0000771 15.1670000 2
17929 17928 17930 17932 1 180.0000771 15.1670000 2
17926 17930 17928 17929 4 180.0000771 4.6024000 2
17923 17930 17932 17933 4 180.0000771 4.6024000 2
17928 17930 17932 17933 1 180.0000771 15.1670000 2
17931 17930 17932 17933 1 180.0000771 15.1670000 2
17923 17932 17930 17928 1 180.0000771 15.1670000 2
17923 17932 17930 17931 1 180.0000771 15.1670000 2
17928 17932 17930 17931 4 180.0000771 4.6024000 2
17936 17937 17938 17939 1 180.0000771 15.1670000 2
17936 17937 17938 17940 1 180.0000771 15.1670000 2
17939 17937 17938 17940 4 180.0000771 4.6024000 2
17936 17937 17946 17938 4 180.0000771 4.6024000 2
17936 17937 17946 17944 1 180.0000771 15.1670000 2
17936 17937 17946 17947 1 180.0000771 15.1670000 2
17938 17937 17946 17944 1 180.0000771 15.1670000 2
17938 17937 17946 17947 1 180.0000771 15.1670000 2
17939 17938 17937 17946 1 180.0000771 15.1670000 2
17940 17938 17937 17946 1 180.0000771 15.1670000 2
17937 17938 17940 17941 1 180.0000771 15.1670000 2
17937 17938 17940 17942 1 180.0000771 15.1670000 2
17939 17938 17940 17941 1 180.0000771 15.1670000 2
17939 17938 17940 17942 1 180.0000771 15.1670000 2
17938 17940 17942 17943 1 180.0000771 15.1670000 2
17938 17940 17942 17944 1 180.0000771 15.1670000 2
17941 17940 17942 17943 1 180.0000771 15.1670000 2
17941 17940 17942 17944 1 180.0000771 15.1670000 2
17938 17942 17940 17941 4 180.0000771 4.6024000 2
17940 17942 17944 17945 1 180.0000771 15.1670000 2
17940 17942 17944 17946 1 180.0000771 15.1670000 2
17943 17942 17944 17945 1 180.0000771 15.1670000 2
17943 17942 17944 17946 1 180.0000771 15.1670000 2
17940 17944 17942 17943 4 180.0000771 4.6024000 2
17937 17944 17946 17947 4 180.0000771 4.6024000 2
17942 17944 17946 17947 1 180.0000771 15.1670000 2
17945 17944 17946 17947 1 180.0000771 15.1670000 2
17937 17946 17944 17942 1 180.0000771 15.1670000 2
17937 17946 17944 17945 1 180.0000771 15.1670000 2
17942 17946 17944 17945 4 180.0000771 4.6024000 2
17950 17951 17952 17953 1 180.0000771 15.1670000 2
17950 17951 17952 17954 1 180.0000771 15.1670000 2
17953 17951 17952 17954 4 180.0000771 4.6024000 2
17950 17951 17960 17952 4 180.0000771 4.6024000 2
17950 17951 17960 17958 1 180.0000771 15.1670000 2
17950 17951 17960 17961 1 180.0000771 15.1670000 2
17952 17951 17960 17958 1 180.0000771 15.1670000 2
17952 17951 17960 17961 1 180.0000771 15.1670000 2
17953 17952 17951 17960 1 180.0000771 15.1670000 2
17954 17952 17951 17960 1 180.0000771 15.1670000 2
17951 17952 17954 17955 1 180.0000771 15.1670000 2
17951 17952 17954 17956 1 180.0000771 15.1670000 2
17953 17952 17954 17955 1 180.0000771 15.1670000 2
17953 17952 17954 17956 1 180.0000771 15.1670000 2
17952 17954 17956 17957 1 180.0000771 15.1670000 2
17952 17954 17956 17958 1 180.0000771 15.1670000 2
17955 17954 17956 17957 1 180.0000771 15.1670000 2
17955 17954 17956 17958 1 180.0000771 15.1670000 2
17952 17956 17954 17955 4 180.0000771 4.6024000 2
17954 17956 17958 17959 1 180.0000771 15.1670000 2
17954 17956 17958 17960 1 180.0000771 15.1670000 2
17957 17956 17958 17959 1 180.0000771 15.1670000 2
17957 17956 17958 17960 1 180.0000771 15.1670000 2
17954 17958 17956 17957 4 180.0000771 4.6024000 2
17951 17958 17960 17961 4 180.0000771 4.6024000 2
17956 17958 17960 17961 1 180.0000771 15.1670000 2
17959 17958 17960 17961 1 180.0000771 15.1670000 2
17951 17960 17958 17956 1 180.0000771 15.1670000 2
17951 17960 17958 17959 1 180.0000771 15.1670000 2
17956 17960 17958 17959 4 180.0000771 4.6024000 2
17964 17965 17966 17967 1 180.0000771 15.1670000 2
17964 17965 17966 17968 1 180.0000771 15.1670000 2
17967 17965 17966 17968 4 180.0000771 4.6024000 2
17964 17965 17974 17966 4 180.0000771 4.6024000 2
17964 17965 17974 17972 1 180.0000771 15.1670000 2
17964 17965 17974 17975 1 180.0000771 15.1670000 2
17966 17965 17974 17972 1 180.0000771 15.1670000 2
17966 17965 17974 17975 1 180.0000771 15.1670000 2
17967 17966 17965 17974 1 180.0000771 15.1670000 2
17968 17966 17965 17974 1 180.0000771 15.1670000 2
17965 17966 17968 17969 1 180.0000771 15.1670000 2
17965 17966 17968 17970 1 180.0000771 15.1670000 2
17967 17966 17968 17969 1 180.0000771 15.1670000 2
17967 17966 17968 17970 1 180.0000771 15.1670000 2
17966 17968 17970 17971 1 180.0000771 15.1670000 2
17966 17968 17970 17972 1 180.0000771 15.1670000 2
17969 17968 17970 17971 1 180.0000771 15.1670000 2
17969 17968 17970 17972 1 180.0000771 15.1670000 2
17966 17970 17968 17969 4 180.0000771 4.6024000 2
17968 17970 17972 17973 1 180.0000771 15.1670000 2
17968 17970 17972 17974 1 180.0000771 15.1670000 2
17971 17970 17972 17973 1 180.0000771 15.1670000 2
17971 17970 17972 17974 1 180.0000771 15.1670000 2
17968 17972 17970 17971 4 180.0000771 4.6024000 2
17965 17972 17974 17975 4 180.0000771 4.6024000 2
17970 17972 17974 17975 1 180.0000771 15.1670000 2
17973 17972 17974 17975 1 180.0000771 15.1670000 2
17965 17974 17972 17970 1 180.0000771 15.1670000 2
17965 17974 17972 17973 1 180.0000771 15.1670000 2
17970 17974 17972 17973 4 180.0000771 4.6024000 2
17978 17979 17980 17981 1 180.0000771 15.1670000 2
17978 17979 17980 17982 1 180.0000771 15.1670000 2
17981 17979 17980 17982 4 180.0000771 4.6024000 2
17978 17979 17988 17980 4 180.0000771 4.6024000 2
17978 17979 17988 17986 1 180.0000771 15.1670000 2
17978 17979 17988 17989 1 180.0000771 15.1670000 2
17980 17979 17988 17986 1 180.0000771 15.1670000 2
17980 17979 17988 17989 1 180.0000771 15.1670000 2
17981 17980 17979 17988 1 180.0000771 15.1670000 2
17982 17980 17979 17988 1 180.0000771 15.1670000 2
17979 17980 17982 17983 1 180.0000771 15.1670000 2
17979 17980 17982 17984 1 180.0000771 15.1670000 2
17981 17980 17982 17983 1 180.0000771 15.1670000 2
17981 17980 17982 17984 1 180.0000771 15.1670000 2
17980 17982 17984 17985 1 180.0000771 15.1670000 2
17980 17982 17984 17986 1 180.0000771 15.1670000 2
17983 17982 17984 17985 1 180.0000771 15.1670000 2
17983 17982 17984 17986 1 180.0000771 15.1670000 2
17980 17984 17982 17983 4 180.0000771 4.6024000 2
17982 17984 17986 17987 1 180.0000771 15.1670000 2
17982 17984 17986 17988 1 180.0000771 15.1670000 2
17985 17984 17986 17987 1 180.0000771 15.1670000 2
17985 17984 17986 17988 1 180.0000771 15.1670000 2
17982 17986 17984 17985 4 180.0000771 4.6024000 2
17979 17986 17988 17989 4 180.0000771 4.6024000 2
17984 17986 17988 17989 1 180.0000771 15.1670000 2
17987 17986 17988 17989 1 180.0000771 15.1670000 2
17979 17988 17986 17984 1 180.0000771 15.1670000 2
17979 17988 17986 17987 1 180.0000771 15.1670000 2
17984 17988 17986 17987 4 180.0000771 4.6024000 2
17992 17993 17994 17995 1 180.0000771 15.1670000 2
17992 17993 17994 17996 1 180.0000771 15.1670000 2
17995 17993 17994 17996 4 180.0000771 4.6024000 2
17992 17993 18002 17994 4 180.0000771 4.6024000 2
17992 17993 18002 18000 1 180.0000771 15.1670000 2
17992 17993 18002 18003 1 180.0000771 15.1670000 2
17994 17993 18002 18000 1 180.0000771 15.1670000 2
17994 17993 18002 18003 1 180.0000771 15.1670000 2
17995 17994 17993 18002 1 180.0000771 15.1670000 2
17996 17994 17993 18002 1 180.0000771 15.1670000 2
17993 17994 17996 17997 1 180.0000771 15.1670000 2
17993 17994 17996 17998 1 180.0000771 15.1670000 2
17995 17994 17996 17997 1 180.0000771 15.1670000 2
17995 17994 17996 17998 1 180.0000771 15.1670000 2
17994 17996 17998 17999 1 180.0000771 15.1670000 2
17994 17996 17998 18000 1 180.0000771 15.1670000 2
17997 17996 17998 17999 1 180.0000771 15.1670000 2
17997 17996 17998 18000 1 180.0000771 15.1670000 2
17994 17998 17996 17997 4 180.0000771 4.6024000 2
17996 17998 18000 18001 1 180.0000771 15.1670000 2
17996 17998 18000 18002 1 180.0000771 15.1670000 2
17999 17998 18000 18001 1 180.0000771 15.1670000 2
17999 17998 18000 18002 1 180.0000771 15.1670000 2
17996 18000 17998 17999 4 180.0000771 4.6024000 2
17993 18000 18002 18003 4 180.0000771 4.6024000 2
17998 18000 18002 18003 1 180.0000771 15.1670000 2
18001 18000 18002 18003 1 180.0000771 15.1670000 2
17993 18002 18000 17998 1 180.0000771 15.1670000 2
17993 18002 18000 18001 1 180.0000771 15.1670000 2
17998 18002 18000 18001 4 180.0000771 4.6024000 2
18006 18007 18008 18009 1 180.0000771 15.1670000 2
18006 18007 18008 18010 1 180.0000771 15.1670000 2
18009 18007 18008 18010 4 180.0000771 4.6024000 2
18006 18007 18016 18008 4 180.0000771 4.6024000 2
18006 18007 18016 18014 1 180.0000771 15.1670000 2
18006 18007 18016 18017 1 180.0000771 15.1670000 2
18008 18007 18016 18014 1 180.0000771 15.1670000 2
18008 18007 18016 18017 1 180.0000771 15.1670000 2
18009 18008 18007 18016 1 180.0000771 15.1670000 2
18010 18008 18007 18016 1 180.0000771 15.1670000 2
18007 18008 18010 18011 1 180.0000771 15.1670000 2
18007 18008 18010 18012 1 180.0000771 15.1670000 2
18009 18008 18010 18011 1 180.0000771 15.1670000 2
18009 18008 18010 18012 1 180.0000771 15.1670000 2
18008 18010 18012 18013 1 180.0000771 15.1670000 2
18008 18010 18012 18014 1 180.0000771 15.1670000 2
18011 18010 18012 18013 1 180.0000771 15.1670000 2
18011 18010 18012 18014 1 180.0000771 15.1670000 2
18008 18012 18010 18011 4 180.0000771 4.6024000 2
18010 18012 18014 18015 1 180.0000771 15.1670000 2
18010 18012 18014 18016 1 180.0000771 15.1670000 2
18013 18012 18014 18015 1 180.0000771 15.1670000 2
18013 18012 18014 18016 1 180.0000771 15.1670000 2
18010 18014 18012 18013 4 180.0000771 4.6024000 2
18007 18014 18016 18017 4 180.0000771 4.6024000 2
18012 18014 18016 18017 1 180.0000771 15.1670000 2
18015 18014 18016 18017 1 180.0000771 15.1670000 2
18007 18016 18014 18012 1 180.0000771 15.1670000 2
18007 18016 18014 18015 1 180.0000771 15.1670000 2
18012 18016 18014 18015 4 180.0000771 4.6024000 2
18020 18021 18022 18023 1 180.0000771 15.1670000 2
18020 18021 18022 18024 1 180.0000771 15.1670000 2
18023 18021 18022 18024 4 180.0000771 4.6024000 2
18020 18021 18030 18022 4 180.0000771 4.6024000 2
18020 18021 18030 18028 1 180.0000771 15.1670000 2
18020 18021 18030 18031 1 180.0000771 15.1670000 2
18022 18021 18030 18028 1 180.0000771 15.1670000 2
18022 18021 18030 18031 1 180.0000771 15.1670000 2
18023 18022 18021 18030 1 180.0000771 15.1670000 2
18024 18022 18021 18030 1 180.0000771 15.1670000 2
18021 18022 18024 18025 1 180.0000771 15.1670000 2
18021 18022 18024 18026 1 180.0000771 15.1670000 2
18023 18022 18024 18025 1 180.0000771 15.1670000 2
18023 18022 18024 18026 1 180.0000771 15.1670000 2
18022 18024 18026 18027 1 180.0000771 15.1670000 2
18022 18024 18026 18028 1 180.0000771 15.1670000 2
18025 18024 18026 18027 1 180.0000771 15.1670000 2
18025 18024 18026 18028 1 180.0000771 15.1670000 2
18022 18026 18024 18025 4 180.0000771 4.6024000 2
18024 18026 18028 18029 1 180.0000771 15.1670000 2
18024 18026 18028 18030 1 180.0000771 15.1670000 2
18027 18026 18028 18029 1 180.0000771 15.1670000 2
18027 18026 18028 18030 1 180.0000771 15.1670000 2
18024 18028 18026 18027 4 180.0000771 4.6024000 2
18021 18028 18030 18031 4 180.0000771 4.6024000 2
18026 18028 18030 18031 1 180.0000771 15.1670000 2
18029 18028 18030 18031 1 180.0000771 15.1670000 2
18021 18030 18028 18026 1 180.0000771 15.1670000 2
18021 18030 18028 18029 1 180.0000771 15.1670000 2
18026 18030 18028 18029 4 180.0000771 4.6024000 2
18034 18035 18036 18037 1 180.0000771 15.1670000 2
18034 18035 18036 18038 1 180.0000771 15.1670000 2
18037 18035 18036 18038 4 180.0000771 4.6024000 2
18034 18035 18044 18036 4 180.0000771 4.6024000 2
18034 18035 18044 18042 1 180.0000771 15.1670000 2
18034 18035 18044 18045 1 180.0000771 15.1670000 2
18036 18035 18044 18042 1 180.0000771 15.1670000 2
18036 18035 18044 18045 1 180.0000771 15.1670000 2
18037 18036 18035 18044 1 180.0000771 15.1670000 2
18038 18036 18035 18044 1 180.0000771 15.1670000 2
18035 18036 18038 18039 1 180.0000771 15.1670000 2
18035 18036 18038 18040 1 180.0000771 15.1670000 2
18037 18036 18038 18039 1 180.0000771 15.1670000 2
18037 18036 18038 18040 1 180.0000771 15.1670000 2
18036 18038 18040 18041 1 180.0000771 15.1670000 2
18036 18038 18040 18042 1 180.0000771 15.1670000 2
18039 18038 18040 18041 1 180.0000771 15.1670000 2
18039 18038 18040 18042 1 180.0000771 15.1670000 2
18036 18040 18038 18039 4 180.0000771 4.6024000 2
18038 18040 18042 18043 1 180.0000771 15.1670000 2
18038 18040 18042 18044 1 180.0000771 15.1670000 2
18041 18040 18042 18043 1 180.0000771 15.1670000 2
18041 18040 18042 18044 1 180.0000771 15.1670000 2
18038 18042 18040 18041 4 180.0000771 4.6024000 2
18035 18042 18044 18045 4 180.0000771 4.6024000 2
18040 18042 18044 18045 1 180.0000771 15.1670000 2
18043 18042 18044 18045 1 180.0000771 15.1670000 2
18035 18044 18042 18040 1 180.0000771 15.1670000 2
18035 18044 18042 18043 1 180.0000771 15.1670000 2
18040 18044 18042 18043 4 180.0000771 4.6024000 2
18048 18049 18050 18051 1 180.0000771 15.1670000 2
18048 18049 18050 18052 1 180.0000771 15.1670000 2
18051 18049 18050 18052 4 180.0000771 4.6024000 2
18048 18049 18058 18050 4 180.0000771 4.6024000 2
18048 18049 18058 18056 1 180.0000771 15.1670000 2
18048 18049 18058 18059 1 180.0000771 15.1670000 2
18050 18049 18058 18056 1 180.0000771 15.1670000 2
18050 18049 18058 18059 1 180.0000771 15.1670000 2
18051 18050 18049 18058 1 180.0000771 15.1670000 2
18052 18050 18049 18058 1 180.0000771 15.1670000 2
18049 18050 18052 18053 1 180.0000771 15.1670000 2
18049 18050 18052 18054 1 180.0000771 15.1670000 2
18051 18050 18052 18053 1 180.0000771 15.1670000 2
18051 18050 18052 18054 1 180.0000771 15.1670000 2
18050 18052 18054 18055 1 180.0000771 15.1670000 2
18050 18052 18054 18056 1 180.0000771 15.1670000 2
18053 18052 18054 18055 1 180.0000771 15.1670000 2
18053 18052 18054 18056 1 180.0000771 15.1670000 2
18050 18054 18052 18053 4 180.0000771 4.6024000 2
18052 18054 18056 18057 1 180.0000771 15.1670000 2
18052 18054 18056 18058 1 180.0000771 15.1670000 2
18055 18054 18056 18057 1 180.0000771 15.1670000 2
18055 18054 18056 18058 1 180.0000771 15.1670000 2
18052 18056 18054 18055 4 180.0000771 4.6024000 2
18049 18056 18058 18059 4 180.0000771 4.6024000 2
18054 18056 18058 18059 1 180.0000771 15.1670000 2
18057 18056 18058 18059 1 180.0000771 15.1670000 2
18049 18058 18056 18054 1 180.0000771 15.1670000 2
18049 18058 18056 18057 1 180.0000771 15.1670000 2
18054 18058 18056 18057 4 180.0000771 4.6024000 2
18062 18063 18064 18065 1 180.0000771 15.1670000 2
18062 18063 18064 18066 1 180.0000771 15.1670000 2
18065 18063 18064 18066 4 180.0000771 4.6024000 2
18062 18063 18072 18064 4 180.0000771 4.6024000 2
18062 18063 18072 18070 1 180.0000771 15.1670000 2
18062 18063 18072 18073 1 180.0000771 15.1670000 2
18064 18063 18072 18070 1 180.0000771 15.1670000 2
18064 18063 18072 18073 1 180.0000771 15.1670000 2
18065 18064 18063 18072 1 180.0000771 15.1670000 2
18066 18064 18063 18072 1 180.0000771 15.1670000 2
18063 18064 18066 18067 1 180.0000771 15.1670000 2
18063 18064 18066 18068 1 180.0000771 15.1670000 2
18065 18064 18066 18067 1 180.0000771 15.1670000 2
18065 18064 18066 18068 1 180.0000771 15.1670000 2
18064 18066 18068 18069 1 180.0000771 15.1670000 2
18064 18066 18068 18070 1 180.0000771 15.1670000 2
18067 18066 18068 18069 1 180.0000771 15.1670000 2
18067 18066 18068 18070 1 180.0000771 15.1670000 2
18064 18068 18066 18067 4 180.0000771 4.6024000 2
18066 18068 18070 18071 1 180.0000771 15.1670000 2
18066 18068 18070 18072 1 180.0000771 15.1670000 2
18069 18068 18070 18071 1 180.0000771 15.1670000 2
18069 18068 18070 18072 1 180.0000771 15.1670000 2
18066 18070 18068 18069 4 180.0000771 4.6024000 2
18063 18070 18072 18073 4 180.0000771 4.6024000 2
18068 18070 18072 18073 1 180.0000771 15.1670000 2
18071 18070 18072 18073 1 180.0000771 15.1670000 2
18063 18072 18070 18068 1 180.0000771 15.1670000 2
18063 18072 18070 18071 1 180.0000771 15.1670000 2
18068 18072 18070 18071 4 180.0000771 4.6024000 2
18076 18077 18078 18079 1 180.0000771 15.1670000 2
18076 18077 18078 18080 1 180.0000771 15.1670000 2
18079 18077 18078 18080 4 180.0000771 4.6024000 2
18076 18077 18086 18078 4 180.0000771 4.6024000 2
18076 18077 18086 18084 1 180.0000771 15.1670000 2
18076 18077 18086 18087 1 180.0000771 15.1670000 2
18078 18077 18086 18084 1 180.0000771 15.1670000 2
18078 18077 18086 18087 1 180.0000771 15.1670000 2
18079 18078 18077 18086 1 180.0000771 15.1670000 2
18080 18078 18077 18086 1 180.0000771 15.1670000 2
18077 18078 18080 18081 1 180.0000771 15.1670000 2
18077 18078 18080 18082 1 180.0000771 15.1670000 2
18079 18078 18080 18081 1 180.0000771 15.1670000 2
18079 18078 18080 18082 1 180.0000771 15.1670000 2
18078 18080 18082 18083 1 180.0000771 15.1670000 2
18078 18080 18082 18084 1 180.0000771 15.1670000 2
18081 18080 18082 18083 1 180.0000771 15.1670000 2
18081 18080 18082 18084 1 180.0000771 15.1670000 2
18078 18082 18080 18081 4 180.0000771 4.6024000 2
18080 18082 18084 18085 1 180.0000771 15.1670000 2
18080 18082 18084 18086 1 180.0000771 15.1670000 2
18083 18082 18084 18085 1 180.0000771 15.1670000 2
18083 18082 18084 18086 1 180.0000771 15.1670000 2
18080 18084 18082 18083 4 180.0000771 4.6024000 2
18077 18084 18086 18087 4 180.0000771 4.6024000 2
18082 18084 18086 18087 1 180.0000771 15.1670000 2
18085 18084 18086 18087 1 180.0000771 15.1670000 2
18077 18086 18084 18082 1 180.0000771 15.1670000 2
18077 18086 18084 18085 1 180.0000771 15.1670000 2
18082 18086 18084 18085 4 180.0000771 4.6024000 2
18090 18091 18092 18093 1 180.0000771 15.1670000 2
18090 18091 18092 18094 1 180.0000771 15.1670000 2
18093 18091 18092 18094 4 180.0000771 4.6024000 2
18090 18091 18100 18092 4 180.0000771 4.6024000 2
18090 18091 18100 18098 1 180.0000771 15.1670000 2
18090 18091 18100 18101 1 180.0000771 15.1670000 2
18092 18091 18100 18098 1 180.0000771 15.1670000 2
18092 18091 18100 18101 1 180.0000771 15.1670000 2
18093 18092 18091 18100 1 180.0000771 15.1670000 2
18094 18092 18091 18100 1 180.0000771 15.1670000 2
18091 18092 18094 18095 1 180.0000771 15.1670000 2
18091 18092 18094 18096 1 180.0000771 15.1670000 2
18093 18092 18094 18095 1 180.0000771 15.1670000 2
18093 18092 18094 18096 1 180.0000771 15.1670000 2
18092 18094 18096 18097 1 180.0000771 15.1670000 2
18092 18094 18096 18098 1 180.0000771 15.1670000 2
18095 18094 18096 18097 1 180.0000771 15.1670000 2
18095 18094 18096 18098 1 180.0000771 15.1670000 2
18092 18096 18094 18095 4 180.0000771 4.6024000 2
18094 18096 18098 18099 1 180.0000771 15.1670000 2
18094 18096 18098 18100 1 180.0000771 15.1670000 2
18097 18096 18098 18099 1 180.0000771 15.1670000 2
18097 18096 18098 18100 1 180.0000771 15.1670000 2
18094 18098 18096 18097 4 180.0000771 4.6024000 2
18091 18098 18100 18101 4 180.0000771 4.6024000 2
18096 18098 18100 18101 1 180.0000771 15.1670000 2
18099 18098 18100 18101 1 180.0000771 15.1670000 2
18091 18100 18098 18096 1 180.0000771 15.1670000 2
18091 18100 18098 18099 1 180.0000771 15.1670000 2
18096 18100 18098 18099 4 180.0000771 4.6024000 2
18104 18105 18106 18107 1 180.0000771 15.1670000 2
18104 18105 18106 18108 1 180.0000771 15.1670000 2
18107 18105 18106 18108 4 180.0000771 4.6024000 2
18104 18105 18114 18106 4 180.0000771 4.6024000 2
18104 18105 18114 18112 1 180.0000771 15.1670000 2
18104 18105 18114 18115 1 180.0000771 15.1670000 2
18106 18105 18114 18112 1 180.0000771 15.1670000 2
18106 18105 18114 18115 1 180.0000771 15.1670000 2
18107 18106 18105 18114 1 180.0000771 15.1670000 2
18108 18106 18105 18114 1 180.0000771 15.1670000 2
18105 18106 18108 18109 1 180.0000771 15.1670000 2
18105 18106 18108 18110 1 180.0000771 15.1670000 2
18107 18106 18108 18109 1 180.0000771 15.1670000 2
18107 18106 18108 18110 1 180.0000771 15.1670000 2
18106 18108 18110 18111 1 180.0000771 15.1670000 2
18106 18108 18110 18112 1 180.0000771 15.1670000 2
18109 18108 18110 18111 1 180.0000771 15.1670000 2
18109 18108 18110 18112 1 180.0000771 15.1670000 2
18106 18110 18108 18109 4 180.0000771 4.6024000 2
18108 18110 18112 18113 1 180.0000771 15.1670000 2
18108 18110 18112 18114 1 180.0000771 15.1670000 2
18111 18110 18112 18113 1 180.0000771 15.1670000 2
18111 18110 18112 18114 1 180.0000771 15.1670000 2
18108 18112 18110 18111 4 180.0000771 4.6024000 2
18105 18112 18114 18115 4 180.0000771 4.6024000 2
18110 18112 18114 18115 1 180.0000771 15.1670000 2
18113 18112 18114 18115 1 180.0000771 15.1670000 2
18105 18114 18112 18110 1 180.0000771 15.1670000 2
18105 18114 18112 18113 1 180.0000771 15.1670000 2
18110 18114 18112 18113 4 180.0000771 4.6024000 2
18118 18119 18120 18121 1 180.0000771 15.1670000 2
18118 18119 18120 18122 1 180.0000771 15.1670000 2
18121 18119 18120 18122 4 180.0000771 4.6024000 2
18118 18119 18128 18120 4 180.0000771 4.6024000 2
18118 18119 18128 18126 1 180.0000771 15.1670000 2
18118 18119 18128 18129 1 180.0000771 15.1670000 2
18120 18119 18128 18126 1 180.0000771 15.1670000 2
18120 18119 18128 18129 1 180.0000771 15.1670000 2
18121 18120 18119 18128 1 180.0000771 15.1670000 2
18122 18120 18119 18128 1 180.0000771 15.1670000 2
18119 18120 18122 18123 1 180.0000771 15.1670000 2
18119 18120 18122 18124 1 180.0000771 15.1670000 2
18121 18120 18122 18123 1 180.0000771 15.1670000 2
18121 18120 18122 18124 1 180.0000771 15.1670000 2
18120 18122 18124 18125 1 180.0000771 15.1670000 2
18120 18122 18124 18126 1 180.0000771 15.1670000 2
18123 18122 18124 18125 1 180.0000771 15.1670000 2
18123 18122 18124 18126 1 180.0000771 15.1670000 2
18120 18124 18122 18123 4 180.0000771 4.6024000 2
18122 18124 18126 18127 1 180.0000771 15.1670000 2
18122 18124 18126 18128 1 180.0000771 15.1670000 2
18125 18124 18126 18127 1 180.0000771 15.1670000 2
18125 18124 18126 18128 1 180.0000771 15.1670000 2
18122 18126 18124 18125 4 180.0000771 4.6024000 2
18119 18126 18128 18129 4 180.0000771 4.6024000 2
18124 18126 18128 18129 1 180.0000771 15.1670000 2
18127 18126 18128 18129 1 180.0000771 15.1670000 2
18119 18128 18126 18124 1 180.0000771 15.1670000 2
18119 18128 18126 18127 1 180.0000771 15.1670000 2
18124 18128 18126 18127 4 180.0000771 4.6024000 2
18132 18133 18134 18135 1 180.0000771 15.1670000 2
18132 18133 18134 18136 1 180.0000771 15.1670000 2
18135 18133 18134 18136 4 180.0000771 4.6024000 2
18132 18133 18142 18134 4 180.0000771 4.6024000 2
18132 18133 18142 18140 1 180.0000771 15.1670000 2
18132 18133 18142 18143 1 180.0000771 15.1670000 2
18134 18133 18142 18140 1 180.0000771 15.1670000 2
18134 18133 18142 18143 1 180.0000771 15.1670000 2
18135 18134 18133 18142 1 180.0000771 15.1670000 2
18136 18134 18133 18142 1 180.0000771 15.1670000 2
18133 18134 18136 18137 1 180.0000771 15.1670000 2
18133 18134 18136 18138 1 180.0000771 15.1670000 2
18135 18134 18136 18137 1 180.0000771 15.1670000 2
18135 18134 18136 18138 1 180.0000771 15.1670000 2
18134 18136 18138 18139 1 180.0000771 15.1670000 2
18134 18136 18138 18140 1 180.0000771 15.1670000 2
18137 18136 18138 18139 1 180.0000771 15.1670000 2
18137 18136 18138 18140 1 180.0000771 15.1670000 2
18134 18138 18136 18137 4 180.0000771 4.6024000 2
18136 18138 18140 18141 1 180.0000771 15.1670000 2
18136 18138 18140 18142 1 180.0000771 15.1670000 2
18139 18138 18140 18141 1 180.0000771 15.1670000 2
18139 18138 18140 18142 1 180.0000771 15.1670000 2
18136 18140 18138 18139 4 180.0000771 4.6024000 2
18133 18140 18142 18143 4 180.0000771 4.6024000 2
18138 18140 18142 18143 1 180.0000771 15.1670000 2
18141 18140 18142 18143 1 180.0000771 15.1670000 2
18133 18142 18140 18138 1 180.0000771 15.1670000 2
18133 18142 18140 18141 1 180.0000771 15.1670000 2
18138 18142 18140 18141 4 180.0000771 4.6024000 2
18146 18147 18148 18149 1 180.0000771 15.1670000 2
18146 18147 18148 18150 1 180.0000771 15.1670000 2
18149 18147 18148 18150 4 180.0000771 4.6024000 2
18146 18147 18156 18148 4 180.0000771 4.6024000 2
18146 18147 18156 18154 1 180.0000771 15.1670000 2
18146 18147 18156 18157 1 180.0000771 15.1670000 2
18148 18147 18156 18154 1 180.0000771 15.1670000 2
18148 18147 18156 18157 1 180.0000771 15.1670000 2
18149 18148 18147 18156 1 180.0000771 15.1670000 2
18150 18148 18147 18156 1 180.0000771 15.1670000 2
18147 18148 18150 18151 1 180.0000771 15.1670000 2
18147 18148 18150 18152 1 180.0000771 15.1670000 2
18149 18148 18150 18151 1 180.0000771 15.1670000 2
18149 18148 18150 18152 1 180.0000771 15.1670000 2
18148 18150 18152 18153 1 180.0000771 15.1670000 2
18148 18150 18152 18154 1 180.0000771 15.1670000 2
18151 18150 18152 18153 1 180.0000771 15.1670000 2
18151 18150 18152 18154 1 180.0000771 15.1670000 2
18148 18152 18150 18151 4 180.0000771 4.6024000 2
18150 18152 18154 18155 1 180.0000771 15.1670000 2
18150 18152 18154 18156 1 180.0000771 15.1670000 2
18153 18152 18154 18155 1 180.0000771 15.1670000 2
18153 18152 18154 18156 1 180.0000771 15.1670000 2
18150 18154 18152 18153 4 180.0000771 4.6024000 2
18147 18154 18156 18157 4 180.0000771 4.6024000 2
18152 18154 18156 18157 1 180.0000771 15.1670000 2
18155 18154 18156 18157 1 180.0000771 15.1670000 2
18147 18156 18154 18152 1 180.0000771 15.1670000 2
18147 18156 18154 18155 1 180.0000771 15.1670000 2
18152 18156 18154 18155 4 180.0000771 4.6024000 2
18160 18161 18162 18163 1 180.0000771 15.1670000 2
18160 18161 18162 18164 1 180.0000771 15.1670000 2
18163 18161 18162 18164 4 180.0000771 4.6024000 2
18160 18161 18170 18162 4 180.0000771 4.6024000 2
18160 18161 18170 18168 1 180.0000771 15.1670000 2
18160 18161 18170 18171 1 180.0000771 15.1670000 2
18162 18161 18170 18168 1 180.0000771 15.1670000 2
18162 18161 18170 18171 1 180.0000771 15.1670000 2
18163 18162 18161 18170 1 180.0000771 15.1670000 2
18164 18162 18161 18170 1 180.0000771 15.1670000 2
18161 18162 18164 18165 1 180.0000771 15.1670000 2
18161 18162 18164 18166 1 180.0000771 15.1670000 2
18163 18162 18164 18165 1 180.0000771 15.1670000 2
18163 18162 18164 18166 1 180.0000771 15.1670000 2
18162 18164 18166 18167 1 180.0000771 15.1670000 2
18162 18164 18166 18168 1 180.0000771 15.1670000 2
18165 18164 18166 18167 1 180.0000771 15.1670000 2
18165 18164 18166 18168 1 180.0000771 15.1670000 2
18162 18166 18164 18165 4 180.0000771 4.6024000 2
18164 18166 18168 18169 1 180.0000771 15.1670000 2
18164 18166 18168 18170 1 180.0000771 15.1670000 2
18167 18166 18168 18169 1 180.0000771 15.1670000 2
18167 18166 18168 18170 1 180.0000771 15.1670000 2
18164 18168 18166 18167 4 180.0000771 4.6024000 2
18161 18168 18170 18171 4 180.0000771 4.6024000 2
18166 18168 18170 18171 1 180.0000771 15.1670000 2
18169 18168 18170 18171 1 180.0000771 15.1670000 2
18161 18170 18168 18166 1 180.0000771 15.1670000 2
18161 18170 18168 18169 1 180.0000771 15.1670000 2
18166 18170 18168 18169 4 180.0000771 4.6024000 2
18174 18175 18176 18177 1 180.0000771 15.1670000 2
18174 18175 18176 18178 1 180.0000771 15.1670000 2
18177 18175 18176 18178 4 180.0000771 4.6024000 2
18174 18175 18184 18176 4 180.0000771 4.6024000 2
18174 18175 18184 18182 1 180.0000771 15.1670000 2
18174 18175 18184 18185 1 180.0000771 15.1670000 2
18176 18175 18184 18182 1 180.0000771 15.1670000 2
18176 18175 18184 18185 1 180.0000771 15.1670000 2
18177 18176 18175 18184 1 180.0000771 15.1670000 2
18178 18176 18175 18184 1 180.0000771 15.1670000 2
18175 18176 18178 18179 1 180.0000771 15.1670000 2
18175 18176 18178 18180 1 180.0000771 15.1670000 2
18177 18176 18178 18179 1 180.0000771 15.1670000 2
18177 18176 18178 18180 1 180.0000771 15.1670000 2
18176 18178 18180 18181 1 180.0000771 15.1670000 2
18176 18178 18180 18182 1 180.0000771 15.1670000 2
18179 18178 18180 18181 1 180.0000771 15.1670000 2
18179 18178 18180 18182 1 180.0000771 15.1670000 2
18176 18180 18178 18179 4 180.0000771 4.6024000 2
18178 18180 18182 18183 1 180.0000771 15.1670000 2
18178 18180 18182 18184 1 180.0000771 15.1670000 2
18181 18180 18182 18183 1 180.0000771 15.1670000 2
18181 18180 18182 18184 1 180.0000771 15.1670000 2
18178 18182 18180 18181 4 180.0000771 4.6024000 2
18175 18182 18184 18185 4 180.0000771 4.6024000 2
18180 18182 18184 18185 1 180.0000771 15.1670000 2
18183 18182 18184 18185 1 180.0000771 15.1670000 2
18175 18184 18182 18180 1 180.0000771 15.1670000 2
18175 18184 18182 18183 1 180.0000771 15.1670000 2
18180 18184 18182 18183 4 180.0000771 4.6024000 2
18188 18189 18190 18191 1 180.0000771 15.1670000 2
18188 18189 18190 18192 1 180.0000771 15.1670000 2
18191 18189 18190 18192 4 180.0000771 4.6024000 2
18188 18189 18198 18190 4 180.0000771 4.6024000 2
18188 18189 18198 18196 1 180.0000771 15.1670000 2
18188 18189 18198 18199 1 180.0000771 15.1670000 2
18190 18189 18198 18196 1 180.0000771 15.1670000 2
18190 18189 18198 18199 1 180.0000771 15.1670000 2
18191 18190 18189 18198 1 180.0000771 15.1670000 2
18192 18190 18189 18198 1 180.0000771 15.1670000 2
18189 18190 18192 18193 1 180.0000771 15.1670000 2
18189 18190 18192 18194 1 180.0000771 15.1670000 2
18191 18190 18192 18193 1 180.0000771 15.1670000 2
18191 18190 18192 18194 1 180.0000771 15.1670000 2
18190 18192 18194 18195 1 180.0000771 15.1670000 2
18190 18192 18194 18196 1 180.0000771 15.1670000 2
18193 18192 18194 18195 1 180.0000771 15.1670000 2
18193 18192 18194 18196 1 180.0000771 15.1670000 2
18190 18194 18192 18193 4 180.0000771 4.6024000 2
18192 18194 18196 18197 1 180.0000771 15.1670000 2
18192 18194 18196 18198 1 180.0000771 15.1670000 2
18195 18194 18196 18197 1 180.0000771 15.1670000 2
18195 18194 18196 18198 1 180.0000771 15.1670000 2
18192 18196 18194 18195 4 180.0000771 4.6024000 2
18189 18196 18198 18199 4 180.0000771 4.6024000 2
18194 18196 18198 18199 1 180.0000771 15.1670000 2
18197 18196 18198 18199 1 180.0000771 15.1670000 2
18189 18198 18196 18194 1 180.0000771 15.1670000 2
18189 18198 18196 18197 1 180.0000771 15.1670000 2
18194 18198 18196 18197 4 180.0000771 4.6024000 2
18202 18203 18204 18205 1 180.0000771 15.1670000 2
18202 18203 18204 18206 1 180.0000771 15.1670000 2
18205 18203 18204 18206 4 180.0000771 4.6024000 2
18202 18203 18212 18204 4 180.0000771 4.6024000 2
18202 18203 18212 18210 1 180.0000771 15.1670000 2
18202 18203 18212 18213 1 180.0000771 15.1670000 2
18204 18203 18212 18210 1 180.0000771 15.1670000 2
18204 18203 18212 18213 1 180.0000771 15.1670000 2
18205 18204 18203 18212 1 180.0000771 15.1670000 2
18206 18204 18203 18212 1 180.0000771 15.1670000 2
18203 18204 18206 18207 1 180.0000771 15.1670000 2
18203 18204 18206 18208 1 180.0000771 15.1670000 2
18205 18204 18206 18207 1 180.0000771 15.1670000 2
18205 18204 18206 18208 1 180.0000771 15.1670000 2
18204 18206 18208 18209 1 180.0000771 15.1670000 2
18204 18206 18208 18210 1 180.0000771 15.1670000 2
18207 18206 18208 18209 1 180.0000771 15.1670000 2
18207 18206 18208 18210 1 180.0000771 15.1670000 2
18204 18208 18206 18207 4 180.0000771 4.6024000 2
18206 18208 18210 18211 1 180.0000771 15.1670000 2
18206 18208 18210 18212 1 180.0000771 15.1670000 2
18209 18208 18210 18211 1 180.0000771 15.1670000 2
18209 18208 18210 18212 1 180.0000771 15.1670000 2
18206 18210 18208 18209 4 180.0000771 4.6024000 2
18203 18210 18212 18213 4 180.0000771 4.6024000 2
18208 18210 18212 18213 1 180.0000771 15.1670000 2
18211 18210 18212 18213 1 180.0000771 15.1670000 2
18203 18212 18210 18208 1 180.0000771 15.1670000 2
18203 18212 18210 18211 1 180.0000771 15.1670000 2
18208 18212 18210 18211 4 180.0000771 4.6024000 2
18216 18217 18218 18219 1 180.0000771 15.1670000 2
18216 18217 18218 18220 1 180.0000771 15.1670000 2
18219 18217 18218 18220 4 180.0000771 4.6024000 2
18216 18217 18226 18218 4 180.0000771 4.6024000 2
18216 18217 18226 18224 1 180.0000771 15.1670000 2
18216 18217 18226 18227 1 180.0000771 15.1670000 2
18218 18217 18226 18224 1 180.0000771 15.1670000 2
18218 18217 18226 18227 1 180.0000771 15.1670000 2
18219 18218 18217 18226 1 180.0000771 15.1670000 2
18220 18218 18217 18226 1 180.0000771 15.1670000 2
18217 18218 18220 18221 1 180.0000771 15.1670000 2
18217 18218 18220 18222 1 180.0000771 15.1670000 2
18219 18218 18220 18221 1 180.0000771 15.1670000 2
18219 18218 18220 18222 1 180.0000771 15.1670000 2
18218 18220 18222 18223 1 180.0000771 15.1670000 2
18218 18220 18222 18224 1 180.0000771 15.1670000 2
18221 18220 18222 18223 1 180.0000771 15.1670000 2
18221 18220 18222 18224 1 180.0000771 15.1670000 2
18218 18222 18220 18221 4 180.0000771 4.6024000 2
18220 18222 18224 18225 1 180.0000771 15.1670000 2
18220 18222 18224 18226 1 180.0000771 15.1670000 2
18223 18222 18224 18225 1 180.0000771 15.1670000 2
18223 18222 18224 18226 1 180.0000771 15.1670000 2
18220 18224 18222 18223 4 180.0000771 4.6024000 2
18217 18224 18226 18227 4 180.0000771 4.6024000 2
18222 18224 18226 18227 1 180.0000771 15.1670000 2
18225 18224 18226 18227 1 180.0000771 15.1670000 2
18217 18226 18224 18222 1 180.0000771 15.1670000 2
18217 18226 18224 18225 1 180.0000771 15.1670000 2
18222 18226 18224 18225 4 180.0000771 4.6024000 2
18230 18231 18232 18233 1 180.0000771 15.1670000 2
18230 18231 18232 18234 1 180.0000771 15.1670000 2
18233 18231 18232 18234 4 180.0000771 4.6024000 2
18230 18231 18240 18232 4 180.0000771 4.6024000 2
18230 18231 18240 18238 1 180.0000771 15.1670000 2
18230 18231 18240 18241 1 180.0000771 15.1670000 2
18232 18231 18240 18238 1 180.0000771 15.1670000 2
18232 18231 18240 18241 1 180.0000771 15.1670000 2
18233 18232 18231 18240 1 180.0000771 15.1670000 2
18234 18232 18231 18240 1 180.0000771 15.1670000 2
18231 18232 18234 18235 1 180.0000771 15.1670000 2
18231 18232 18234 18236 1 180.0000771 15.1670000 2
18233 18232 18234 18235 1 180.0000771 15.1670000 2
18233 18232 18234 18236 1 180.0000771 15.1670000 2
18232 18234 18236 18237 1 180.0000771 15.1670000 2
18232 18234 18236 18238 1 180.0000771 15.1670000 2
18235 18234 18236 18237 1 180.0000771 15.1670000 2
18235 18234 18236 18238 1 180.0000771 15.1670000 2
18232 18236 18234 18235 4 180.0000771 4.6024000 2
18234 18236 18238 18239 1 180.0000771 15.1670000 2
18234 18236 18238 18240 1 180.0000771 15.1670000 2
18237 18236 18238 18239 1 180.0000771 15.1670000 2
18237 18236 18238 18240 1 180.0000771 15.1670000 2
18234 18238 18236 18237 4 180.0000771 4.6024000 2
18231 18238 18240 18241 4 180.0000771 4.6024000 2
18236 18238 18240 18241 1 180.0000771 15.1670000 2
18239 18238 18240 18241 1 180.0000771 15.1670000 2
18231 18240 18238 18236 1 180.0000771 15.1670000 2
18231 18240 18238 18239 1 180.0000771 15.1670000 2
18236 18240 18238 18239 4 180.0000771 4.6024000 2
18244 18245 18246 18247 1 180.0000771 15.1670000 2
18244 18245 18246 18248 1 180.0000771 15.1670000 2
18247 18245 18246 18248 4 180.0000771 4.6024000 2
18244 18245 18254 18246 4 180.0000771 4.6024000 2
18244 18245 18254 18252 1 180.0000771 15.1670000 2
18244 18245 18254 18255 1 180.0000771 15.1670000 2
18246 18245 18254 18252 1 180.0000771 15.1670000 2
18246 18245 18254 18255 1 180.0000771 15.1670000 2
18247 18246 18245 18254 1 180.0000771 15.1670000 2
18248 18246 18245 18254 1 180.0000771 15.1670000 2
18245 18246 18248 18249 1 180.0000771 15.1670000 2
18245 18246 18248 18250 1 180.0000771 15.1670000 2
18247 18246 18248 18249 1 180.0000771 15.1670000 2
18247 18246 18248 18250 1 180.0000771 15.1670000 2
18246 18248 18250 18251 1 180.0000771 15.1670000 2
18246 18248 18250 18252 1 180.0000771 15.1670000 2
18249 18248 18250 18251 1 180.0000771 15.1670000 2
18249 18248 18250 18252 1 180.0000771 15.1670000 2
18246 18250 18248 18249 4 180.0000771 4.6024000 2
18248 18250 18252 18253 1 180.0000771 15.1670000 2
18248 18250 18252 18254 1 180.0000771 15.1670000 2
18251 18250 18252 18253 1 180.0000771 15.1670000 2
18251 18250 18252 18254 1 180.0000771 15.1670000 2
18248 18252 18250 18251 4 180.0000771 4.6024000 2
18245 18252 18254 18255 4 180.0000771 4.6024000 2
18250 18252 18254 18255 1 180.0000771 15.1670000 2
18253 18252 18254 18255 1 180.0000771 15.1670000 2
18245 18254 18252 18250 1 180.0000771 15.1670000 2
18245 18254 18252 18253 1 180.0000771 15.1670000 2
18250 18254 18252 18253 4 180.0000771 4.6024000 2
18258 18259 18260 18261 1 180.0000771 15.1670000 2
18258 18259 18260 18262 1 180.0000771 15.1670000 2
18261 18259 18260 18262 4 180.0000771 4.6024000 2
18258 18259 18268 18260 4 180.0000771 4.6024000 2
18258 18259 18268 18266 1 180.0000771 15.1670000 2
18258 18259 18268 18269 1 180.0000771 15.1670000 2
18260 18259 18268 18266 1 180.0000771 15.1670000 2
18260 18259 18268 18269 1 180.0000771 15.1670000 2
18261 18260 18259 18268 1 180.0000771 15.1670000 2
18262 18260 18259 18268 1 180.0000771 15.1670000 2
18259 18260 18262 18263 1 180.0000771 15.1670000 2
18259 18260 18262 18264 1 180.0000771 15.1670000 2
18261 18260 18262 18263 1 180.0000771 15.1670000 2
18261 18260 18262 18264 1 180.0000771 15.1670000 2
18260 18262 18264 18265 1 180.0000771 15.1670000 2
18260 18262 18264 18266 1 180.0000771 15.1670000 2
18263 18262 18264 18265 1 180.0000771 15.1670000 2
18263 18262 18264 18266 1 180.0000771 15.1670000 2
18260 18264 18262 18263 4 180.0000771 4.6024000 2
18262 18264 18266 18267 1 180.0000771 15.1670000 2
18262 18264 18266 18268 1 180.0000771 15.1670000 2
18265 18264 18266 18267 1 180.0000771 15.1670000 2
18265 18264 18266 18268 1 180.0000771 15.1670000 2
18262 18266 18264 18265 4 180.0000771 4.6024000 2
18259 18266 18268 18269 4 180.0000771 4.6024000 2
18264 18266 18268 18269 1 180.0000771 15.1670000 2
18267 18266 18268 18269 1 180.0000771 15.1670000 2
18259 18268 18266 18264 1 180.0000771 15.1670000 2
18259 18268 18266 18267 1 180.0000771 15.1670000 2
18264 18268 18266 18267 4 180.0000771 4.6024000 2
18272 18273 18274 18275 1 180.0000771 15.1670000 2
18272 18273 18274 18276 1 180.0000771 15.1670000 2
18275 18273 18274 18276 4 180.0000771 4.6024000 2
18272 18273 18282 18274 4 180.0000771 4.6024000 2
18272 18273 18282 18280 1 180.0000771 15.1670000 2
18272 18273 18282 18283 1 180.0000771 15.1670000 2
18274 18273 18282 18280 1 180.0000771 15.1670000 2
18274 18273 18282 18283 1 180.0000771 15.1670000 2
18275 18274 18273 18282 1 180.0000771 15.1670000 2
18276 18274 18273 18282 1 180.0000771 15.1670000 2
18273 18274 18276 18277 1 180.0000771 15.1670000 2
18273 18274 18276 18278 1 180.0000771 15.1670000 2
18275 18274 18276 18277 1 180.0000771 15.1670000 2
18275 18274 18276 18278 1 180.0000771 15.1670000 2
18274 18276 18278 18279 1 180.0000771 15.1670000 2
18274 18276 18278 18280 1 180.0000771 15.1670000 2
18277 18276 18278 18279 1 180.0000771 15.1670000 2
18277 18276 18278 18280 1 180.0000771 15.1670000 2
18274 18278 18276 18277 4 180.0000771 4.6024000 2
18276 18278 18280 18281 1 180.0000771 15.1670000 2
18276 18278 18280 18282 1 180.0000771 15.1670000 2
18279 18278 18280 18281 1 180.0000771 15.1670000 2
18279 18278 18280 18282 1 180.0000771 15.1670000 2
18276 18280 18278 18279 4 180.0000771 4.6024000 2
18273 18280 18282 18283 4 180.0000771 4.6024000 2
18278 18280 18282 18283 1 180.0000771 15.1670000 2
18281 18280 18282 18283 1 180.0000771 15.1670000 2
18273 18282 18280 18278 1 180.0000771 15.1670000 2
18273 18282 18280 18281 1 180.0000771 15.1670000 2
18278 18282 18280 18281 4 180.0000771 4.6024000 2
18286 18287 18288 18289 1 180.0000771 15.1670000 2
18286 18287 18288 18290 1 180.0000771 15.1670000 2
18289 18287 18288 18290 4 180.0000771 4.6024000 2
18286 18287 18296 18288 4 180.0000771 4.6024000 2
18286 18287 18296 18294 1 180.0000771 15.1670000 2
18286 18287 18296 18297 1 180.0000771 15.1670000 2
18288 18287 18296 18294 1 180.0000771 15.1670000 2
18288 18287 18296 18297 1 180.0000771 15.1670000 2
18289 18288 18287 18296 1 180.0000771 15.1670000 2
18290 18288 18287 18296 1 180.0000771 15.1670000 2
18287 18288 18290 18291 1 180.0000771 15.1670000 2
18287 18288 18290 18292 1 180.0000771 15.1670000 2
18289 18288 18290 18291 1 180.0000771 15.1670000 2
18289 18288 18290 18292 1 180.0000771 15.1670000 2
18288 18290 18292 18293 1 180.0000771 15.1670000 2
18288 18290 18292 18294 1 180.0000771 15.1670000 2
18291 18290 18292 18293 1 180.0000771 15.1670000 2
18291 18290 18292 18294 1 180.0000771 15.1670000 2
18288 18292 18290 18291 4 180.0000771 4.6024000 2
18290 18292 18294 18295 1 180.0000771 15.1670000 2
18290 18292 18294 18296 1 180.0000771 15.1670000 2
18293 18292 18294 18295 1 180.0000771 15.1670000 2
18293 18292 18294 18296 1 180.0000771 15.1670000 2
18290 18294 18292 18293 4 180.0000771 4.6024000 2
18287 18294 18296 18297 4 180.0000771 4.6024000 2
18292 18294 18296 18297 1 180.0000771 15.1670000 2
18295 18294 18296 18297 1 180.0000771 15.1670000 2
18287 18296 18294 18292 1 180.0000771 15.1670000 2
18287 18296 18294 18295 1 180.0000771 15.1670000 2
18292 18296 18294 18295 4 180.0000771 4.6024000 2
18300 18301 18302 18303 1 180.0000771 15.1670000 2
18300 18301 18302 18304 1 180.0000771 15.1670000 2
18303 18301 18302 18304 4 180.0000771 4.6024000 2
18300 18301 18310 18302 4 180.0000771 4.6024000 2
18300 18301 18310 18308 1 180.0000771 15.1670000 2
18300 18301 18310 18311 1 180.0000771 15.1670000 2
18302 18301 18310 18308 1 180.0000771 15.1670000 2
18302 18301 18310 18311 1 180.0000771 15.1670000 2
18303 18302 18301 18310 1 180.0000771 15.1670000 2
18304 18302 18301 18310 1 180.0000771 15.1670000 2
18301 18302 18304 18305 1 180.0000771 15.1670000 2
18301 18302 18304 18306 1 180.0000771 15.1670000 2
18303 18302 18304 18305 1 180.0000771 15.1670000 2
18303 18302 18304 18306 1 180.0000771 15.1670000 2
18302 18304 18306 18307 1 180.0000771 15.1670000 2
18302 18304 18306 18308 1 180.0000771 15.1670000 2
18305 18304 18306 18307 1 180.0000771 15.1670000 2
18305 18304 18306 18308 1 180.0000771 15.1670000 2
18302 18306 18304 18305 4 180.0000771 4.6024000 2
18304 18306 18308 18309 1 180.0000771 15.1670000 2
18304 18306 18308 18310 1 180.0000771 15.1670000 2
18307 18306 18308 18309 1 180.0000771 15.1670000 2
18307 18306 18308 18310 1 180.0000771 15.1670000 2
18304 18308 18306 18307 4 180.0000771 4.6024000 2
18301 18308 18310 18311 4 180.0000771 4.6024000 2
18306 18308 18310 18311 1 180.0000771 15.1670000 2
18309 18308 18310 18311 1 180.0000771 15.1670000 2
18301 18310 18308 18306 1 180.0000771 15.1670000 2
18301 18310 18308 18309 1 180.0000771 15.1670000 2
18306 18310 18308 18309 4 180.0000771 4.6024000 2
18314 18315 18316 18317 1 180.0000771 15.1670000 2
18314 18315 18316 18318 1 180.0000771 15.1670000 2
18317 18315 18316 18318 4 180.0000771 4.6024000 2
18314 18315 18324 18316 4 180.0000771 4.6024000 2
18314 18315 18324 18322 1 180.0000771 15.1670000 2
18314 18315 18324 18325 1 180.0000771 15.1670000 2
18316 18315 18324 18322 1 180.0000771 15.1670000 2
18316 18315 18324 18325 1 180.0000771 15.1670000 2
18317 18316 18315 18324 1 180.0000771 15.1670000 2
18318 18316 18315 18324 1 180.0000771 15.1670000 2
18315 18316 18318 18319 1 180.0000771 15.1670000 2
18315 18316 18318 18320 1 180.0000771 15.1670000 2
18317 18316 18318 18319 1 180.0000771 15.1670000 2
18317 18316 18318 18320 1 180.0000771 15.1670000 2
18316 18318 18320 18321 1 180.0000771 15.1670000 2
18316 18318 18320 18322 1 180.0000771 15.1670000 2
18319 18318 18320 18321 1 180.0000771 15.1670000 2
18319 18318 18320 18322 1 180.0000771 15.1670000 2
18316 18320 18318 18319 4 180.0000771 4.6024000 2
18318 18320 18322 18323 1 180.0000771 15.1670000 2
18318 18320 18322 18324 1 180.0000771 15.1670000 2
18321 18320 18322 18323 1 180.0000771 15.1670000 2
18321 18320 18322 18324 1 180.0000771 15.1670000 2
18318 18322 18320 18321 4 180.0000771 4.6024000 2
18315 18322 18324 18325 4 180.0000771 4.6024000 2
18320 18322 18324 18325 1 180.0000771 15.1670000 2
18323 18322 18324 18325 1 180.0000771 15.1670000 2
18315 18324 18322 18320 1 180.0000771 15.1670000 2
18315 18324 18322 18323 1 180.0000771 15.1670000 2
18320 18324 18322 18323 4 180.0000771 4.6024000 2
18328 18329 18330 18331 1 180.0000771 15.1670000 2
18328 18329 18330 18332 1 180.0000771 15.1670000 2
18331 18329 18330 18332 4 180.0000771 4.6024000 2
18328 18329 18338 18330 4 180.0000771 4.6024000 2
18328 18329 18338 18336 1 180.0000771 15.1670000 2
18328 18329 18338 18339 1 180.0000771 15.1670000 2
18330 18329 18338 18336 1 180.0000771 15.1670000 2
18330 18329 18338 18339 1 180.0000771 15.1670000 2
18331 18330 18329 18338 1 180.0000771 15.1670000 2
18332 18330 18329 18338 1 180.0000771 15.1670000 2
18329 18330 18332 18333 1 180.0000771 15.1670000 2
18329 18330 18332 18334 1 180.0000771 15.1670000 2
18331 18330 18332 18333 1 180.0000771 15.1670000 2
18331 18330 18332 18334 1 180.0000771 15.1670000 2
18330 18332 18334 18335 1 180.0000771 15.1670000 2
18330 18332 18334 18336 1 180.0000771 15.1670000 2
18333 18332 18334 18335 1 180.0000771 15.1670000 2
18333 18332 18334 18336 1 180.0000771 15.1670000 2
18330 18334 18332 18333 4 180.0000771 4.6024000 2
18332 18334 18336 18337 1 180.0000771 15.1670000 2
18332 18334 18336 18338 1 180.0000771 15.1670000 2
18335 18334 18336 18337 1 180.0000771 15.1670000 2
18335 18334 18336 18338 1 180.0000771 15.1670000 2
18332 18336 18334 18335 4 180.0000771 4.6024000 2
18329 18336 18338 18339 4 180.0000771 4.6024000 2
18334 18336 18338 18339 1 180.0000771 15.1670000 2
18337 18336 18338 18339 1 180.0000771 15.1670000 2
18329 18338 18336 18334 1 180.0000771 15.1670000 2
18329 18338 18336 18337 1 180.0000771 15.1670000 2
18334 18338 18336 18337 4 180.0000771 4.6024000 2
18342 18343 18344 18345 1 180.0000771 15.1670000 2
18342 18343 18344 18346 1 180.0000771 15.1670000 2
18345 18343 18344 18346 4 180.0000771 4.6024000 2
18342 18343 18352 18344 4 180.0000771 4.6024000 2
18342 18343 18352 18350 1 180.0000771 15.1670000 2
18342 18343 18352 18353 1 180.0000771 15.1670000 2
18344 18343 18352 18350 1 180.0000771 15.1670000 2
18344 18343 18352 18353 1 180.0000771 15.1670000 2
18345 18344 18343 18352 1 180.0000771 15.1670000 2
18346 18344 18343 18352 1 180.0000771 15.1670000 2
18343 18344 18346 18347 1 180.0000771 15.1670000 2
18343 18344 18346 18348 1 180.0000771 15.1670000 2
18345 18344 18346 18347 1 180.0000771 15.1670000 2
18345 18344 18346 18348 1 180.0000771 15.1670000 2
18344 18346 18348 18349 1 180.0000771 15.1670000 2
18344 18346 18348 18350 1 180.0000771 15.1670000 2
18347 18346 18348 18349 1 180.0000771 15.1670000 2
18347 18346 18348 18350 1 180.0000771 15.1670000 2
18344 18348 18346 18347 4 180.0000771 4.6024000 2
18346 18348 18350 18351 1 180.0000771 15.1670000 2
18346 18348 18350 18352 1 180.0000771 15.1670000 2
18349 18348 18350 18351 1 180.0000771 15.1670000 2
18349 18348 18350 18352 1 180.0000771 15.1670000 2
18346 18350 18348 18349 4 180.0000771 4.6024000 2
18343 18350 18352 18353 4 180.0000771 4.6024000 2
18348 18350 18352 18353 1 180.0000771 15.1670000 2
18351 18350 18352 18353 1 180.0000771 15.1670000 2
18343 18352 18350 18348 1 180.0000771 15.1670000 2
18343 18352 18350 18351 1 180.0000771 15.1670000 2
18348 18352 18350 18351 4 180.0000771 4.6024000 2
18354 18355 18356 18357 1 180.0000771 15.1670000 2
18354 18355 18356 18358 1 180.0000771 15.1670000 2
18357 18355 18356 18358 4 180.0000771 4.6024000 2
18354 18355 18364 18356 4 180.0000771 4.6024000 2
18354 18355 18364 18362 1 180.0000771 15.1670000 2
18354 18355 18364 18365 1 180.0000771 15.1670000 2
18356 18355 18364 18362 1 180.0000771 15.1670000 2
18356 18355 18364 18365 1 180.0000771 15.1670000 2
18357 18356 18355 18364 1 180.0000771 15.1670000 2
18358 18356 18355 18364 1 180.0000771 15.1670000 2
18355 18356 18358 18359 1 180.0000771 15.1670000 2
18355 18356 18358 18360 1 180.0000771 15.1670000 2
18357 18356 18358 18359 1 180.0000771 15.1670000 2
18357 18356 18358 18360 1 180.0000771 15.1670000 2
18356 18358 18360 18361 1 180.0000771 15.1670000 2
18356 18358 18360 18362 1 180.0000771 15.1670000 2
18359 18358 18360 18361 1 180.0000771 15.1670000 2
18359 18358 18360 18362 1 180.0000771 15.1670000 2
18356 18360 18358 18359 4 180.0000771 4.6024000 2
18358 18360 18362 18363 1 180.0000771 15.1670000 2
18358 18360 18362 18364 1 180.0000771 15.1670000 2
18361 18360 18362 18363 1 180.0000771 15.1670000 2
18361 18360 18362 18364 1 180.0000771 15.1670000 2
18358 18362 18360 18361 4 180.0000771 4.6024000 2
18355 18362 18364 18365 4 180.0000771 4.6024000 2
18360 18362 18364 18365 1 180.0000771 15.1670000 2
18363 18362 18364 18365 1 180.0000771 15.1670000 2
18355 18364 18362 18360 1 180.0000771 15.1670000 2
18355 18364 18362 18363 1 180.0000771 15.1670000 2
18360 18364 18362 18363 4 180.0000771 4.6024000 2
18366 18367 18368 18369 1 180.0000771 15.1670000 2
18366 18367 18368 18370 1 180.0000771 15.1670000 2
18369 18367 18368 18370 4 180.0000771 4.6024000 2
18366 18367 18376 18368 4 180.0000771 4.6024000 2
18366 18367 18376 18374 1 180.0000771 15.1670000 2
18366 18367 18376 18377 1 180.0000771 15.1670000 2
18368 18367 18376 18374 1 180.0000771 15.1670000 2
18368 18367 18376 18377 1 180.0000771 15.1670000 2
18369 18368 18367 18376 1 180.0000771 15.1670000 2
18370 18368 18367 18376 1 180.0000771 15.1670000 2
18367 18368 18370 18371 1 180.0000771 15.1670000 2
18367 18368 18370 18372 1 180.0000771 15.1670000 2
18369 18368 18370 18371 1 180.0000771 15.1670000 2
18369 18368 18370 18372 1 180.0000771 15.1670000 2
18368 18370 18372 18373 1 180.0000771 15.1670000 2
18368 18370 18372 18374 1 180.0000771 15.1670000 2
18371 18370 18372 18373 1 180.0000771 15.1670000 2
18371 18370 18372 18374 1 180.0000771 15.1670000 2
18368 18372 18370 18371 4 180.0000771 4.6024000 2
18370 18372 18374 18375 1 180.0000771 15.1670000 2
18370 18372 18374 18376 1 180.0000771 15.1670000 2
18373 18372 18374 18375 1 180.0000771 15.1670000 2
18373 18372 18374 18376 1 180.0000771 15.1670000 2
18370 18374 18372 18373 4 180.0000771 4.6024000 2
18367 18374 18376 18377 4 180.0000771 4.6024000 2
18372 18374 18376 18377 1 180.0000771 15.1670000 2
18375 18374 18376 18377 1 180.0000771 15.1670000 2
18367 18376 18374 18372 1 180.0000771 15.1670000 2
18367 18376 18374 18375 1 180.0000771 15.1670000 2
18372 18376 18374 18375 4 180.0000771 4.6024000 2
18378 18379 18380 18381 1 180.0000771 15.1670000 2
18378 18379 18380 18382 1 180.0000771 15.1670000 2
18381 18379 18380 18382 4 180.0000771 4.6024000 2
18378 18379 18388 18380 4 180.0000771 4.6024000 2
18378 18379 18388 18386 1 180.0000771 15.1670000 2
18378 18379 18388 18389 1 180.0000771 15.1670000 2
18380 18379 18388 18386 1 180.0000771 15.1670000 2
18380 18379 18388 18389 1 180.0000771 15.1670000 2
18381 18380 18379 18388 1 180.0000771 15.1670000 2
18382 18380 18379 18388 1 180.0000771 15.1670000 2
18379 18380 18382 18383 1 180.0000771 15.1670000 2
18379 18380 18382 18384 1 180.0000771 15.1670000 2
18381 18380 18382 18383 1 180.0000771 15.1670000 2
18381 18380 18382 18384 1 180.0000771 15.1670000 2
18380 18382 18384 18385 1 180.0000771 15.1670000 2
18380 18382 18384 18386 1 180.0000771 15.1670000 2
18383 18382 18384 18385 1 180.0000771 15.1670000 2
18383 18382 18384 18386 1 180.0000771 15.1670000 2
18380 18384 18382 18383 4 180.0000771 4.6024000 2
18382 18384 18386 18387 1 180.0000771 15.1670000 2
18382 18384 18386 18388 1 180.0000771 15.1670000 2
18385 18384 18386 18387 1 180.0000771 15.1670000 2
18385 18384 18386 18388 1 180.0000771 15.1670000 2
18382 18386 18384 18385 4 180.0000771 4.6024000 2
18379 18386 18388 18389 4 180.0000771 4.6024000 2
18384 18386 18388 18389 1 180.0000771 15.1670000 2
18387 18386 18388 18389 1 180.0000771 15.1670000 2
18379 18388 18386 18384 1 180.0000771 15.1670000 2
18379 18388 18386 18387 1 180.0000771 15.1670000 2
18384 18388 18386 18387 4 180.0000771 4.6024000 2
18390 18391 18392 18393 1 180.0000771 15.1670000 2
18390 18391 18392 18394 1 180.0000771 15.1670000 2
18393 18391 18392 18394 4 180.0000771 4.6024000 2
18390 18391 18400 18392 4 180.0000771 4.6024000 2
18390 18391 18400 18398 1 180.0000771 15.1670000 2
18390 18391 18400 18401 1 180.0000771 15.1670000 2
18392 18391 18400 18398 1 180.0000771 15.1670000 2
18392 18391 18400 18401 1 180.0000771 15.1670000 2
18393 18392 18391 18400 1 180.0000771 15.1670000 2
18394 18392 18391 18400 1 180.0000771 15.1670000 2
18391 18392 18394 18395 1 180.0000771 15.1670000 2
18391 18392 18394 18396 1 180.0000771 15.1670000 2
18393 18392 18394 18395 1 180.0000771 15.1670000 2
18393 18392 18394 18396 1 180.0000771 15.1670000 2
18392 18394 18396 18397 1 180.0000771 15.1670000 2
18392 18394 18396 18398 1 180.0000771 15.1670000 2
18395 18394 18396 18397 1 180.0000771 15.1670000 2
18395 18394 18396 18398 1 180.0000771 15.1670000 2
18392 18396 18394 18395 4 180.0000771 4.6024000 2
18394 18396 18398 18399 1 180.0000771 15.1670000 2
18394 18396 18398 18400 1 180.0000771 15.1670000 2
18397 18396 18398 18399 1 180.0000771 15.1670000 2
18397 18396 18398 18400 1 180.0000771 15.1670000 2
18394 18398 18396 18397 4 180.0000771 4.6024000 2
18391 18398 18400 18401 4 180.0000771 4.6024000 2
18396 18398 18400 18401 1 180.0000771 15.1670000 2
18399 18398 18400 18401 1 180.0000771 15.1670000 2
18391 18400 18398 18396 1 180.0000771 15.1670000 2
18391 18400 18398 18399 1 180.0000771 15.1670000 2
18396 18400 18398 18399 4 180.0000771 4.6024000 2
18402 18403 18404 18405 1 180.0000771 15.1670000 2
18402 18403 18404 18406 1 180.0000771 15.1670000 2
18405 18403 18404 18406 4 180.0000771 4.6024000 2
18402 18403 18412 18404 4 180.0000771 4.6024000 2
18402 18403 18412 18410 1 180.0000771 15.1670000 2
18402 18403 18412 18413 1 180.0000771 15.1670000 2
18404 18403 18412 18410 1 180.0000771 15.1670000 2
18404 18403 18412 18413 1 180.0000771 15.1670000 2
18405 18404 18403 18412 1 180.0000771 15.1670000 2
18406 18404 18403 18412 1 180.0000771 15.1670000 2
18403 18404 18406 18407 1 180.0000771 15.1670000 2
18403 18404 18406 18408 1 180.0000771 15.1670000 2
18405 18404 18406 18407 1 180.0000771 15.1670000 2
18405 18404 18406 18408 1 180.0000771 15.1670000 2
18404 18406 18408 18409 1 180.0000771 15.1670000 2
18404 18406 18408 18410 1 180.0000771 15.1670000 2
18407 18406 18408 18409 1 180.0000771 15.1670000 2
18407 18406 18408 18410 1 180.0000771 15.1670000 2
18404 18408 18406 18407 4 180.0000771 4.6024000 2
18406 18408 18410 18411 1 180.0000771 15.1670000 2
18406 18408 18410 18412 1 180.0000771 15.1670000 2
18409 18408 18410 18411 1 180.0000771 15.1670000 2
18409 18408 18410 18412 1 180.0000771 15.1670000 2
18406 18410 18408 18409 4 180.0000771 4.6024000 2
18403 18410 18412 18413 4 180.0000771 4.6024000 2
18408 18410 18412 18413 1 180.0000771 15.1670000 2
18411 18410 18412 18413 1 180.0000771 15.1670000 2
18403 18412 18410 18408 1 180.0000771 15.1670000 2
18403 18412 18410 18411 1 180.0000771 15.1670000 2
18408 18412 18410 18411 4 180.0000771 4.6024000 2
18414 18415 18416 18417 1 180.0000771 15.1670000 2
18414 18415 18416 18418 1 180.0000771 15.1670000 2
18417 18415 18416 18418 4 180.0000771 4.6024000 2
18414 18415 18424 18416 4 180.0000771 4.6024000 2
18414 18415 18424 18422 1 180.0000771 15.1670000 2
18414 18415 18424 18425 1 180.0000771 15.1670000 2
18416 18415 18424 18422 1 180.0000771 15.1670000 2
18416 18415 18424 18425 1 180.0000771 15.1670000 2
18417 18416 18415 18424 1 180.0000771 15.1670000 2
18418 18416 18415 18424 1 180.0000771 15.1670000 2
18415 18416 18418 18419 1 180.0000771 15.1670000 2
18415 18416 18418 18420 1 180.0000771 15.1670000 2
18417 18416 18418 18419 1 180.0000771 15.1670000 2
18417 18416 18418 18420 1 180.0000771 15.1670000 2
18416 18418 18420 18421 1 180.0000771 15.1670000 2
18416 18418 18420 18422 1 180.0000771 15.1670000 2
18419 18418 18420 18421 1 180.0000771 15.1670000 2
18419 18418 18420 18422 1 180.0000771 15.1670000 2
18416 18420 18418 18419 4 180.0000771 4.6024000 2
18418 18420 18422 18423 1 180.0000771 15.1670000 2
18418 18420 18422 18424 1 180.0000771 15.1670000 2
18421 18420 18422 18423 1 180.0000771 15.1670000 2
18421 18420 18422 18424 1 180.0000771 15.1670000 2
18418 18422 18420 18421 4 180.0000771 4.6024000 2
18415 18422 18424 18425 4 180.0000771 4.6024000 2
18420 18422 18424 18425 1 180.0000771 15.1670000 2
18423 18422 18424 18425 1 180.0000771 15.1670000 2
18415 18424 18422 18420 1 180.0000771 15.1670000 2
18415 18424 18422 18423 1 180.0000771 15.1670000 2
18420 18424 18422 18423 4 180.0000771 4.6024000 2
18426 18427 18428 18429 1 180.0000771 15.1670000 2
18426 18427 18428 18430 1 180.0000771 15.1670000 2
18429 18427 18428 18430 4 180.0000771 4.6024000 2
18426 18427 18436 18428 4 180.0000771 4.6024000 2
18426 18427 18436 18434 1 180.0000771 15.1670000 2
18426 18427 18436 18437 1 180.0000771 15.1670000 2
18428 18427 18436 18434 1 180.0000771 15.1670000 2
18428 18427 18436 18437 1 180.0000771 15.1670000 2
18429 18428 18427 18436 1 180.0000771 15.1670000 2
18430 18428 18427 18436 1 180.0000771 15.1670000 2
18427 18428 18430 18431 1 180.0000771 15.1670000 2
18427 18428 18430 18432 1 180.0000771 15.1670000 2
18429 18428 18430 18431 1 180.0000771 15.1670000 2
18429 18428 18430 18432 1 180.0000771 15.1670000 2
18428 18430 18432 18433 1 180.0000771 15.1670000 2
18428 18430 18432 18434 1 180.0000771 15.1670000 2
18431 18430 18432 18433 1 180.0000771 15.1670000 2
18431 18430 18432 18434 1 180.0000771 15.1670000 2
18428 18432 18430 18431 4 180.0000771 4.6024000 2
18430 18432 18434 18435 1 180.0000771 15.1670000 2
18430 18432 18434 18436 1 180.0000771 15.1670000 2
18433 18432 18434 18435 1 180.0000771 15.1670000 2
18433 18432 18434 18436 1 180.0000771 15.1670000 2
18430 18434 18432 18433 4 180.0000771 4.6024000 2
18427 18434 18436 18437 4 180.0000771 4.6024000 2
18432 18434 18436 18437 1 180.0000771 15.1670000 2
18435 18434 18436 18437 1 180.0000771 15.1670000 2
18427 18436 18434 18432 1 180.0000771 15.1670000 2
18427 18436 18434 18435 1 180.0000771 15.1670000 2
18432 18436 18434 18435 4 180.0000771 4.6024000 2
18438 18439 18440 18441 1 180.0000771 15.1670000 2
18438 18439 18440 18442 1 180.0000771 15.1670000 2
18441 18439 18440 18442 4 180.0000771 4.6024000 2
18438 18439 18448 18440 4 180.0000771 4.6024000 2
18438 18439 18448 18446 1 180.0000771 15.1670000 2
18438 18439 18448 18449 1 180.0000771 15.1670000 2
18440 18439 18448 18446 1 180.0000771 15.1670000 2
18440 18439 18448 18449 1 180.0000771 15.1670000 2
18441 18440 18439 18448 1 180.0000771 15.1670000 2
18442 18440 18439 18448 1 180.0000771 15.1670000 2
18439 18440 18442 18443 1 180.0000771 15.1670000 2
18439 18440 18442 18444 1 180.0000771 15.1670000 2
18441 18440 18442 18443 1 180.0000771 15.1670000 2
18441 18440 18442 18444 1 180.0000771 15.1670000 2
18440 18442 18444 18445 1 180.0000771 15.1670000 2
18440 18442 18444 18446 1 180.0000771 15.1670000 2
18443 18442 18444 18445 1 180.0000771 15.1670000 2
18443 18442 18444 18446 1 180.0000771 15.1670000 2
18440 18444 18442 18443 4 180.0000771 4.6024000 2
18442 18444 18446 18447 1 180.0000771 15.1670000 2
18442 18444 18446 18448 1 180.0000771 15.1670000 2
18445 18444 18446 18447 1 180.0000771 15.1670000 2
18445 18444 18446 18448 1 180.0000771 15.1670000 2
18442 18446 18444 18445 4 180.0000771 4.6024000 2
18439 18446 18448 18449 4 180.0000771 4.6024000 2
18444 18446 18448 18449 1 180.0000771 15.1670000 2
18447 18446 18448 18449 1 180.0000771 15.1670000 2
18439 18448 18446 18444 1 180.0000771 15.1670000 2
18439 18448 18446 18447 1 180.0000771 15.1670000 2
18444 18448 18446 18447 4 180.0000771 4.6024000 2
18450 18451 18452 18453 1 180.0000771 15.1670000 2
18450 18451 18452 18454 1 180.0000771 15.1670000 2
18453 18451 18452 18454 4 180.0000771 4.6024000 2
18450 18451 18460 18452 4 180.0000771 4.6024000 2
18450 18451 18460 18458 1 180.0000771 15.1670000 2
18450 18451 18460 18461 1 180.0000771 15.1670000 2
18452 18451 18460 18458 1 180.0000771 15.1670000 2
18452 18451 18460 18461 1 180.0000771 15.1670000 2
18453 18452 18451 18460 1 180.0000771 15.1670000 2
18454 18452 18451 18460 1 180.0000771 15.1670000 2
18451 18452 18454 18455 1 180.0000771 15.1670000 2
18451 18452 18454 18456 1 180.0000771 15.1670000 2
18453 18452 18454 18455 1 180.0000771 15.1670000 2
18453 18452 18454 18456 1 180.0000771 15.1670000 2
18452 18454 18456 18457 1 180.0000771 15.1670000 2
18452 18454 18456 18458 1 180.0000771 15.1670000 2
18455 18454 18456 18457 1 180.0000771 15.1670000 2
18455 18454 18456 18458 1 180.0000771 15.1670000 2
18452 18456 18454 18455 4 180.0000771 4.6024000 2
18454 18456 18458 18459 1 180.0000771 15.1670000 2
18454 18456 18458 18460 1 180.0000771 15.1670000 2
18457 18456 18458 18459 1 180.0000771 15.1670000 2
18457 18456 18458 18460 1 180.0000771 15.1670000 2
18454 18458 18456 18457 4 180.0000771 4.6024000 2
18451 18458 18460 18461 4 180.0000771 4.6024000 2
18456 18458 18460 18461 1 180.0000771 15.1670000 2
18459 18458 18460 18461 1 180.0000771 15.1670000 2
18451 18460 18458 18456 1 180.0000771 15.1670000 2
18451 18460 18458 18459 1 180.0000771 15.1670000 2
18456 18460 18458 18459 4 180.0000771 4.6024000 2
18462 18463 18464 18465 1 180.0000771 15.1670000 2
18462 18463 18464 18466 1 180.0000771 15.1670000 2
18465 18463 18464 18466 4 180.0000771 4.6024000 2
18462 18463 18472 18464 4 180.0000771 4.6024000 2
18462 18463 18472 18470 1 180.0000771 15.1670000 2
18462 18463 18472 18473 1 180.0000771 15.1670000 2
18464 18463 18472 18470 1 180.0000771 15.1670000 2
18464 18463 18472 18473 1 180.0000771 15.1670000 2
18465 18464 18463 18472 1 180.0000771 15.1670000 2
18466 18464 18463 18472 1 180.0000771 15.1670000 2
18463 18464 18466 18467 1 180.0000771 15.1670000 2
18463 18464 18466 18468 1 180.0000771 15.1670000 2
18465 18464 18466 18467 1 180.0000771 15.1670000 2
18465 18464 18466 18468 1 180.0000771 15.1670000 2
18464 18466 18468 18469 1 180.0000771 15.1670000 2
18464 18466 18468 18470 1 180.0000771 15.1670000 2
18467 18466 18468 18469 1 180.0000771 15.1670000 2
18467 18466 18468 18470 1 180.0000771 15.1670000 2
18464 18468 18466 18467 4 180.0000771 4.6024000 2
18466 18468 18470 18471 1 180.0000771 15.1670000 2
18466 18468 18470 18472 1 180.0000771 15.1670000 2
18469 18468 18470 18471 1 180.0000771 15.1670000 2
18469 18468 18470 18472 1 180.0000771 15.1670000 2
18466 18470 18468 18469 4 180.0000771 4.6024000 2
18463 18470 18472 18473 4 180.0000771 4.6024000 2
18468 18470 18472 18473 1 180.0000771 15.1670000 2
18471 18470 18472 18473 1 180.0000771 15.1670000 2
18463 18472 18470 18468 1 180.0000771 15.1670000 2
18463 18472 18470 18471 1 180.0000771 15.1670000 2
18468 18472 18470 18471 4 180.0000771 4.6024000 2
18474 18475 18476 18477 1 180.0000771 15.1670000 2
18474 18475 18476 18478 1 180.0000771 15.1670000 2
18477 18475 18476 18478 4 180.0000771 4.6024000 2
18474 18475 18484 18476 4 180.0000771 4.6024000 2
18474 18475 18484 18482 1 180.0000771 15.1670000 2
18474 18475 18484 18485 1 180.0000771 15.1670000 2
18476 18475 18484 18482 1 180.0000771 15.1670000 2
18476 18475 18484 18485 1 180.0000771 15.1670000 2
18477 18476 18475 18484 1 180.0000771 15.1670000 2
18478 18476 18475 18484 1 180.0000771 15.1670000 2
18475 18476 18478 18479 1 180.0000771 15.1670000 2
18475 18476 18478 18480 1 180.0000771 15.1670000 2
18477 18476 18478 18479 1 180.0000771 15.1670000 2
18477 18476 18478 18480 1 180.0000771 15.1670000 2
18476 18478 18480 18481 1 180.0000771 15.1670000 2
18476 18478 18480 18482 1 180.0000771 15.1670000 2
18479 18478 18480 18481 1 180.0000771 15.1670000 2
18479 18478 18480 18482 1 180.0000771 15.1670000 2
18476 18480 18478 18479 4 180.0000771 4.6024000 2
18478 18480 18482 18483 1 180.0000771 15.1670000 2
18478 18480 18482 18484 1 180.0000771 15.1670000 2
18481 18480 18482 18483 1 180.0000771 15.1670000 2
18481 18480 18482 18484 1 180.0000771 15.1670000 2
18478 18482 18480 18481 4 180.0000771 4.6024000 2
18475 18482 18484 18485 4 180.0000771 4.6024000 2
18480 18482 18484 18485 1 180.0000771 15.1670000 2
18483 18482 18484 18485 1 180.0000771 15.1670000 2
18475 18484 18482 18480 1 180.0000771 15.1670000 2
18475 18484 18482 18483 1 180.0000771 15.1670000 2
18480 18484 18482 18483 4 180.0000771 4.6024000 2
18486 18487 18488 18489 1 180.0000771 15.1670000 2
18486 18487 18488 18490 1 180.0000771 15.1670000 2
18489 18487 18488 18490 4 180.0000771 4.6024000 2
18486 18487 18496 18488 4 180.0000771 4.6024000 2
18486 18487 18496 18494 1 180.0000771 15.1670000 2
18486 18487 18496 18497 1 180.0000771 15.1670000 2
18488 18487 18496 18494 1 180.0000771 15.1670000 2
18488 18487 18496 18497 1 180.0000771 15.1670000 2
18489 18488 18487 18496 1 180.0000771 15.1670000 2
18490 18488 18487 18496 1 180.0000771 15.1670000 2
18487 18488 18490 18491 1 180.0000771 15.1670000 2
18487 18488 18490 18492 1 180.0000771 15.1670000 2
18489 18488 18490 18491 1 180.0000771 15.1670000 2
18489 18488 18490 18492 1 180.0000771 15.1670000 2
18488 18490 18492 18493 1 180.0000771 15.1670000 2
18488 18490 18492 18494 1 180.0000771 15.1670000 2
18491 18490 18492 18493 1 180.0000771 15.1670000 2
18491 18490 18492 18494 1 180.0000771 15.1670000 2
18488 18492 18490 18491 4 180.0000771 4.6024000 2
18490 18492 18494 18495 1 180.0000771 15.1670000 2
18490 18492 18494 18496 1 180.0000771 15.1670000 2
18493 18492 18494 18495 1 180.0000771 15.1670000 2
18493 18492 18494 18496 1 180.0000771 15.1670000 2
18490 18494 18492 18493 4 180.0000771 4.6024000 2
18487 18494 18496 18497 4 180.0000771 4.6024000 2
18492 18494 18496 18497 1 180.0000771 15.1670000 2
18495 18494 18496 18497 1 180.0000771 15.1670000 2
18487 18496 18494 18492 1 180.0000771 15.1670000 2
18487 18496 18494 18495 1 180.0000771 15.1670000 2
18492 18496 18494 18495 4 180.0000771 4.6024000 2
18498 18499 18500 18501 1 180.0000771 15.1670000 2
18498 18499 18500 18502 1 180.0000771 15.1670000 2
18501 18499 18500 18502 4 180.0000771 4.6024000 2
18498 18499 18508 18500 4 180.0000771 4.6024000 2
18498 18499 18508 18506 1 180.0000771 15.1670000 2
18498 18499 18508 18509 1 180.0000771 15.1670000 2
18500 18499 18508 18506 1 180.0000771 15.1670000 2
18500 18499 18508 18509 1 180.0000771 15.1670000 2
18501 18500 18499 18508 1 180.0000771 15.1670000 2
18502 18500 18499 18508 1 180.0000771 15.1670000 2
18499 18500 18502 18503 1 180.0000771 15.1670000 2
18499 18500 18502 18504 1 180.0000771 15.1670000 2
18501 18500 18502 18503 1 180.0000771 15.1670000 2
18501 18500 18502 18504 1 180.0000771 15.1670000 2
18500 18502 18504 18505 1 180.0000771 15.1670000 2
18500 18502 18504 18506 1 180.0000771 15.1670000 2
18503 18502 18504 18505 1 180.0000771 15.1670000 2
18503 18502 18504 18506 1 180.0000771 15.1670000 2
18500 18504 18502 18503 4 180.0000771 4.6024000 2
18502 18504 18506 18507 1 180.0000771 15.1670000 2
18502 18504 18506 18508 1 180.0000771 15.1670000 2
18505 18504 18506 18507 1 180.0000771 15.1670000 2
18505 18504 18506 18508 1 180.0000771 15.1670000 2
18502 18506 18504 18505 4 180.0000771 4.6024000 2
18499 18506 18508 18509 4 180.0000771 4.6024000 2
18504 18506 18508 18509 1 180.0000771 15.1670000 2
18507 18506 18508 18509 1 180.0000771 15.1670000 2
18499 18508 18506 18504 1 180.0000771 15.1670000 2
18499 18508 18506 18507 1 180.0000771 15.1670000 2
18504 18508 18506 18507 4 180.0000771 4.6024000 2
18510 18511 18512 18513 1 180.0000771 15.1670000 2
18510 18511 18512 18514 1 180.0000771 15.1670000 2
18513 18511 18512 18514 4 180.0000771 4.6024000 2
18510 18511 18520 18512 4 180.0000771 4.6024000 2
18510 18511 18520 18518 1 180.0000771 15.1670000 2
18510 18511 18520 18521 1 180.0000771 15.1670000 2
18512 18511 18520 18518 1 180.0000771 15.1670000 2
18512 18511 18520 18521 1 180.0000771 15.1670000 2
18513 18512 18511 18520 1 180.0000771 15.1670000 2
18514 18512 18511 18520 1 180.0000771 15.1670000 2
18511 18512 18514 18515 1 180.0000771 15.1670000 2
18511 18512 18514 18516 1 180.0000771 15.1670000 2
18513 18512 18514 18515 1 180.0000771 15.1670000 2
18513 18512 18514 18516 1 180.0000771 15.1670000 2
18512 18514 18516 18517 1 180.0000771 15.1670000 2
18512 18514 18516 18518 1 180.0000771 15.1670000 2
18515 18514 18516 18517 1 180.0000771 15.1670000 2
18515 18514 18516 18518 1 180.0000771 15.1670000 2
18512 18516 18514 18515 4 180.0000771 4.6024000 2
18514 18516 18518 18519 1 180.0000771 15.1670000 2
18514 18516 18518 18520 1 180.0000771 15.1670000 2
18517 18516 18518 18519 1 180.0000771 15.1670000 2
18517 18516 18518 18520 1 180.0000771 15.1670000 2
18514 18518 18516 18517 4 180.0000771 4.6024000 2
18511 18518 18520 18521 4 180.0000771 4.6024000 2
18516 18518 18520 18521 1 180.0000771 15.1670000 2
18519 18518 18520 18521 1 180.0000771 15.1670000 2
18511 18520 18518 18516 1 180.0000771 15.1670000 2
18511 18520 18518 18519 1 180.0000771 15.1670000 2
18516 18520 18518 18519 4 180.0000771 4.6024000 2
18522 18523 18524 18525 1 180.0000771 15.1670000 2
18522 18523 18524 18526 1 180.0000771 15.1670000 2
18525 18523 18524 18526 4 180.0000771 4.6024000 2
18522 18523 18532 18524 4 180.0000771 4.6024000 2
18522 18523 18532 18530 1 180.0000771 15.1670000 2
18522 18523 18532 18533 1 180.0000771 15.1670000 2
18524 18523 18532 18530 1 180.0000771 15.1670000 2
18524 18523 18532 18533 1 180.0000771 15.1670000 2
18525 18524 18523 18532 1 180.0000771 15.1670000 2
18526 18524 18523 18532 1 180.0000771 15.1670000 2
18523 18524 18526 18527 1 180.0000771 15.1670000 2
18523 18524 18526 18528 1 180.0000771 15.1670000 2
18525 18524 18526 18527 1 180.0000771 15.1670000 2
18525 18524 18526 18528 1 180.0000771 15.1670000 2
18524 18526 18528 18529 1 180.0000771 15.1670000 2
18524 18526 18528 18530 1 180.0000771 15.1670000 2
18527 18526 18528 18529 1 180.0000771 15.1670000 2
18527 18526 18528 18530 1 180.0000771 15.1670000 2
18524 18528 18526 18527 4 180.0000771 4.6024000 2
18526 18528 18530 18531 1 180.0000771 15.1670000 2
18526 18528 18530 18532 1 180.0000771 15.1670000 2
18529 18528 18530 18531 1 180.0000771 15.1670000 2
18529 18528 18530 18532 1 180.0000771 15.1670000 2
18526 18530 18528 18529 4 180.0000771 4.6024000 2
18523 18530 18532 18533 4 180.0000771 4.6024000 2
18528 18530 18532 18533 1 180.0000771 15.1670000 2
18531 18530 18532 18533 1 180.0000771 15.1670000 2
18523 18532 18530 18528 1 180.0000771 15.1670000 2
18523 18532 18530 18531 1 180.0000771 15.1670000 2
18528 18532 18530 18531 4 180.0000771 4.6024000 2
18534 18535 18536 18537 1 180.0000771 15.1670000 2
18534 18535 18536 18538 1 180.0000771 15.1670000 2
18537 18535 18536 18538 4 180.0000771 4.6024000 2
18534 18535 18544 18536 4 180.0000771 4.6024000 2
18534 18535 18544 18542 1 180.0000771 15.1670000 2
18534 18535 18544 18545 1 180.0000771 15.1670000 2
18536 18535 18544 18542 1 180.0000771 15.1670000 2
18536 18535 18544 18545 1 180.0000771 15.1670000 2
18537 18536 18535 18544 1 180.0000771 15.1670000 2
18538 18536 18535 18544 1 180.0000771 15.1670000 2
18535 18536 18538 18539 1 180.0000771 15.1670000 2
18535 18536 18538 18540 1 180.0000771 15.1670000 2
18537 18536 18538 18539 1 180.0000771 15.1670000 2
18537 18536 18538 18540 1 180.0000771 15.1670000 2
18536 18538 18540 18541 1 180.0000771 15.1670000 2
18536 18538 18540 18542 1 180.0000771 15.1670000 2
18539 18538 18540 18541 1 180.0000771 15.1670000 2
18539 18538 18540 18542 1 180.0000771 15.1670000 2
18536 18540 18538 18539 4 180.0000771 4.6024000 2
18538 18540 18542 18543 1 180.0000771 15.1670000 2
18538 18540 18542 18544 1 180.0000771 15.1670000 2
18541 18540 18542 18543 1 180.0000771 15.1670000 2
18541 18540 18542 18544 1 180.0000771 15.1670000 2
18538 18542 18540 18541 4 180.0000771 4.6024000 2
18535 18542 18544 18545 4 180.0000771 4.6024000 2
18540 18542 18544 18545 1 180.0000771 15.1670000 2
18543 18542 18544 18545 1 180.0000771 15.1670000 2
18535 18544 18542 18540 1 180.0000771 15.1670000 2
18535 18544 18542 18543 1 180.0000771 15.1670000 2
18540 18544 18542 18543 4 180.0000771 4.6024000 2
18546 18547 18548 18549 1 180.0000771 15.1670000 2
18546 18547 18548 18550 1 180.0000771 15.1670000 2
18549 18547 18548 18550 4 180.0000771 4.6024000 2
18546 18547 18556 18548 4 180.0000771 4.6024000 2
18546 18547 18556 18554 1 180.0000771 15.1670000 2
18546 18547 18556 18557 1 180.0000771 15.1670000 2
18548 18547 18556 18554 1 180.0000771 15.1670000 2
18548 18547 18556 18557 1 180.0000771 15.1670000 2
18549 18548 18547 18556 1 180.0000771 15.1670000 2
18550 18548 18547 18556 1 180.0000771 15.1670000 2
18547 18548 18550 18551 1 180.0000771 15.1670000 2
18547 18548 18550 18552 1 180.0000771 15.1670000 2
18549 18548 18550 18551 1 180.0000771 15.1670000 2
18549 18548 18550 18552 1 180.0000771 15.1670000 2
18548 18550 18552 18553 1 180.0000771 15.1670000 2
18548 18550 18552 18554 1 180.0000771 15.1670000 2
18551 18550 18552 18553 1 180.0000771 15.1670000 2
18551 18550 18552 18554 1 180.0000771 15.1670000 2
18548 18552 18550 18551 4 180.0000771 4.6024000 2
18550 18552 18554 18555 1 180.0000771 15.1670000 2
18550 18552 18554 18556 1 180.0000771 15.1670000 2
18553 18552 18554 18555 1 180.0000771 15.1670000 2
18553 18552 18554 18556 1 180.0000771 15.1670000 2
18550 18554 18552 18553 4 180.0000771 4.6024000 2
18547 18554 18556 18557 4 180.0000771 4.6024000 2
18552 18554 18556 18557 1 180.0000771 15.1670000 2
18555 18554 18556 18557 1 180.0000771 15.1670000 2
18547 18556 18554 18552 1 180.0000771 15.1670000 2
18547 18556 18554 18555 1 180.0000771 15.1670000 2
18552 18556 18554 18555 4 180.0000771 4.6024000 2
18558 18559 18560 18561 1 180.0000771 15.1670000 2
18558 18559 18560 18562 1 180.0000771 15.1670000 2
18561 18559 18560 18562 4 180.0000771 4.6024000 2
18558 18559 18568 18560 4 180.0000771 4.6024000 2
18558 18559 18568 18566 1 180.0000771 15.1670000 2
18558 18559 18568 18569 1 180.0000771 15.1670000 2
18560 18559 18568 18566 1 180.0000771 15.1670000 2
18560 18559 18568 18569 1 180.0000771 15.1670000 2
18561 18560 18559 18568 1 180.0000771 15.1670000 2
18562 18560 18559 18568 1 180.0000771 15.1670000 2
18559 18560 18562 18563 1 180.0000771 15.1670000 2
18559 18560 18562 18564 1 180.0000771 15.1670000 2
18561 18560 18562 18563 1 180.0000771 15.1670000 2
18561 18560 18562 18564 1 180.0000771 15.1670000 2
18560 18562 18564 18565 1 180.0000771 15.1670000 2
18560 18562 18564 18566 1 180.0000771 15.1670000 2
18563 18562 18564 18565 1 180.0000771 15.1670000 2
18563 18562 18564 18566 1 180.0000771 15.1670000 2
18560 18564 18562 18563 4 180.0000771 4.6024000 2
18562 18564 18566 18567 1 180.0000771 15.1670000 2
18562 18564 18566 18568 1 180.0000771 15.1670000 2
18565 18564 18566 18567 1 180.0000771 15.1670000 2
18565 18564 18566 18568 1 180.0000771 15.1670000 2
18562 18566 18564 18565 4 180.0000771 4.6024000 2
18559 18566 18568 18569 4 180.0000771 4.6024000 2
18564 18566 18568 18569 1 180.0000771 15.1670000 2
18567 18566 18568 18569 1 180.0000771 15.1670000 2
18559 18568 18566 18564 1 180.0000771 15.1670000 2
18559 18568 18566 18567 1 180.0000771 15.1670000 2
18564 18568 18566 18567 4 180.0000771 4.6024000 2
18570 18571 18572 18573 1 180.0000771 15.1670000 2
18570 18571 18572 18574 1 180.0000771 15.1670000 2
18573 18571 18572 18574 4 180.0000771 4.6024000 2
18570 18571 18580 18572 4 180.0000771 4.6024000 2
18570 18571 18580 18578 1 180.0000771 15.1670000 2
18570 18571 18580 18581 1 180.0000771 15.1670000 2
18572 18571 18580 18578 1 180.0000771 15.1670000 2
18572 18571 18580 18581 1 180.0000771 15.1670000 2
18573 18572 18571 18580 1 180.0000771 15.1670000 2
18574 18572 18571 18580 1 180.0000771 15.1670000 2
18571 18572 18574 18575 1 180.0000771 15.1670000 2
18571 18572 18574 18576 1 180.0000771 15.1670000 2
18573 18572 18574 18575 1 180.0000771 15.1670000 2
18573 18572 18574 18576 1 180.0000771 15.1670000 2
18572 18574 18576 18577 1 180.0000771 15.1670000 2
18572 18574 18576 18578 1 180.0000771 15.1670000 2
18575 18574 18576 18577 1 180.0000771 15.1670000 2
18575 18574 18576 18578 1 180.0000771 15.1670000 2
18572 18576 18574 18575 4 180.0000771 4.6024000 2
18574 18576 18578 18579 1 180.0000771 15.1670000 2
18574 18576 18578 18580 1 180.0000771 15.1670000 2
18577 18576 18578 18579 1 180.0000771 15.1670000 2
18577 18576 18578 18580 1 180.0000771 15.1670000 2
18574 18578 18576 18577 4 180.0000771 4.6024000 2
18571 18578 18580 18581 4 180.0000771 4.6024000 2
18576 18578 18580 18581 1 180.0000771 15.1670000 2
18579 18578 18580 18581 1 180.0000771 15.1670000 2
18571 18580 18578 18576 1 180.0000771 15.1670000 2
18571 18580 18578 18579 1 180.0000771 15.1670000 2
18576 18580 18578 18579 4 180.0000771 4.6024000 2
18582 18583 18584 18585 1 180.0000771 15.1670000 2
18582 18583 18584 18586 1 180.0000771 15.1670000 2
18585 18583 18584 18586 4 180.0000771 4.6024000 2
18582 18583 18592 18584 4 180.0000771 4.6024000 2
18582 18583 18592 18590 1 180.0000771 15.1670000 2
18582 18583 18592 18593 1 180.0000771 15.1670000 2
18584 18583 18592 18590 1 180.0000771 15.1670000 2
18584 18583 18592 18593 1 180.0000771 15.1670000 2
18585 18584 18583 18592 1 180.0000771 15.1670000 2
18586 18584 18583 18592 1 180.0000771 15.1670000 2
18583 18584 18586 18587 1 180.0000771 15.1670000 2
18583 18584 18586 18588 1 180.0000771 15.1670000 2
18585 18584 18586 18587 1 180.0000771 15.1670000 2
18585 18584 18586 18588 1 180.0000771 15.1670000 2
18584 18586 18588 18589 1 180.0000771 15.1670000 2
18584 18586 18588 18590 1 180.0000771 15.1670000 2
18587 18586 18588 18589 1 180.0000771 15.1670000 2
18587 18586 18588 18590 1 180.0000771 15.1670000 2
18584 18588 18586 18587 4 180.0000771 4.6024000 2
18586 18588 18590 18591 1 180.0000771 15.1670000 2
18586 18588 18590 18592 1 180.0000771 15.1670000 2
18589 18588 18590 18591 1 180.0000771 15.1670000 2
18589 18588 18590 18592 1 180.0000771 15.1670000 2
18586 18590 18588 18589 4 180.0000771 4.6024000 2
18583 18590 18592 18593 4 180.0000771 4.6024000 2
18588 18590 18592 18593 1 180.0000771 15.1670000 2
18591 18590 18592 18593 1 180.0000771 15.1670000 2
18583 18592 18590 18588 1 180.0000771 15.1670000 2
18583 18592 18590 18591 1 180.0000771 15.1670000 2
18588 18592 18590 18591 4 180.0000771 4.6024000 2
18594 18595 18596 18597 1 180.0000771 15.1670000 2
18594 18595 18596 18598 1 180.0000771 15.1670000 2
18597 18595 18596 18598 4 180.0000771 4.6024000 2
18594 18595 18604 18596 4 180.0000771 4.6024000 2
18594 18595 18604 18602 1 180.0000771 15.1670000 2
18594 18595 18604 18605 1 180.0000771 15.1670000 2
18596 18595 18604 18602 1 180.0000771 15.1670000 2
18596 18595 18604 18605 1 180.0000771 15.1670000 2
18597 18596 18595 18604 1 180.0000771 15.1670000 2
18598 18596 18595 18604 1 180.0000771 15.1670000 2
18595 18596 18598 18599 1 180.0000771 15.1670000 2
18595 18596 18598 18600 1 180.0000771 15.1670000 2
18597 18596 18598 18599 1 180.0000771 15.1670000 2
18597 18596 18598 18600 1 180.0000771 15.1670000 2
18596 18598 18600 18601 1 180.0000771 15.1670000 2
18596 18598 18600 18602 1 180.0000771 15.1670000 2
18599 18598 18600 18601 1 180.0000771 15.1670000 2
18599 18598 18600 18602 1 180.0000771 15.1670000 2
18596 18600 18598 18599 4 180.0000771 4.6024000 2
18598 18600 18602 18603 1 180.0000771 15.1670000 2
18598 18600 18602 18604 1 180.0000771 15.1670000 2
18601 18600 18602 18603 1 180.0000771 15.1670000 2
18601 18600 18602 18604 1 180.0000771 15.1670000 2
18598 18602 18600 18601 4 180.0000771 4.6024000 2
18595 18602 18604 18605 4 180.0000771 4.6024000 2
18600 18602 18604 18605 1 180.0000771 15.1670000 2
18603 18602 18604 18605 1 180.0000771 15.1670000 2
18595 18604 18602 18600 1 180.0000771 15.1670000 2
18595 18604 18602 18603 1 180.0000771 15.1670000 2
18600 18604 18602 18603 4 180.0000771 4.6024000 2
18606 18607 18608 18609 1 180.0000771 15.1670000 2
18606 18607 18608 18610 1 180.0000771 15.1670000 2
18609 18607 18608 18610 4 180.0000771 4.6024000 2
18606 18607 18616 18608 4 180.0000771 4.6024000 2
18606 18607 18616 18614 1 180.0000771 15.1670000 2
18606 18607 18616 18617 1 180.0000771 15.1670000 2
18608 18607 18616 18614 1 180.0000771 15.1670000 2
18608 18607 18616 18617 1 180.0000771 15.1670000 2
18609 18608 18607 18616 1 180.0000771 15.1670000 2
18610 18608 18607 18616 1 180.0000771 15.1670000 2
18607 18608 18610 18611 1 180.0000771 15.1670000 2
18607 18608 18610 18612 1 180.0000771 15.1670000 2
18609 18608 18610 18611 1 180.0000771 15.1670000 2
18609 18608 18610 18612 1 180.0000771 15.1670000 2
18608 18610 18612 18613 1 180.0000771 15.1670000 2
18608 18610 18612 18614 1 180.0000771 15.1670000 2
18611 18610 18612 18613 1 180.0000771 15.1670000 2
18611 18610 18612 18614 1 180.0000771 15.1670000 2
18608 18612 18610 18611 4 180.0000771 4.6024000 2
18610 18612 18614 18615 1 180.0000771 15.1670000 2
18610 18612 18614 18616 1 180.0000771 15.1670000 2
18613 18612 18614 18615 1 180.0000771 15.1670000 2
18613 18612 18614 18616 1 180.0000771 15.1670000 2
18610 18614 18612 18613 4 180.0000771 4.6024000 2
18607 18614 18616 18617 4 180.0000771 4.6024000 2
18612 18614 18616 18617 1 180.0000771 15.1670000 2
18615 18614 18616 18617 1 180.0000771 15.1670000 2
18607 18616 18614 18612 1 180.0000771 15.1670000 2
18607 18616 18614 18615 1 180.0000771 15.1670000 2
18612 18616 18614 18615 4 180.0000771 4.6024000 2
18618 18619 18620 18621 1 180.0000771 15.1670000 2
18618 18619 18620 18622 1 180.0000771 15.1670000 2
18621 18619 18620 18622 4 180.0000771 4.6024000 2
18618 18619 18628 18620 4 180.0000771 4.6024000 2
18618 18619 18628 18626 1 180.0000771 15.1670000 2
18618 18619 18628 18629 1 180.0000771 15.1670000 2
18620 18619 18628 18626 1 180.0000771 15.1670000 2
18620 18619 18628 18629 1 180.0000771 15.1670000 2
18621 18620 18619 18628 1 180.0000771 15.1670000 2
18622 18620 18619 18628 1 180.0000771 15.1670000 2
18619 18620 18622 18623 1 180.0000771 15.1670000 2
18619 18620 18622 18624 1 180.0000771 15.1670000 2
18621 18620 18622 18623 1 180.0000771 15.1670000 2
18621 18620 18622 18624 1 180.0000771 15.1670000 2
18620 18622 18624 18625 1 180.0000771 15.1670000 2
18620 18622 18624 18626 1 180.0000771 15.1670000 2
18623 18622 18624 18625 1 180.0000771 15.1670000 2
18623 18622 18624 18626 1 180.0000771 15.1670000 2
18620 18624 18622 18623 4 180.0000771 4.6024000 2
18622 18624 18626 18627 1 180.0000771 15.1670000 2
18622 18624 18626 18628 1 180.0000771 15.1670000 2
18625 18624 18626 18627 1 180.0000771 15.1670000 2
18625 18624 18626 18628 1 180.0000771 15.1670000 2
18622 18626 18624 18625 4 180.0000771 4.6024000 2
18619 18626 18628 18629 4 180.0000771 4.6024000 2
18624 18626 18628 18629 1 180.0000771 15.1670000 2
18627 18626 18628 18629 1 180.0000771 15.1670000 2
18619 18628 18626 18624 1 180.0000771 15.1670000 2
18619 18628 18626 18627 1 180.0000771 15.1670000 2
18624 18628 18626 18627 4 180.0000771 4.6024000 2
18630 18631 18632 18633 1 180.0000771 15.1670000 2
18630 18631 18632 18634 1 180.0000771 15.1670000 2
18633 18631 18632 18634 4 180.0000771 4.6024000 2
18630 18631 18640 18632 4 180.0000771 4.6024000 2
18630 18631 18640 18638 1 180.0000771 15.1670000 2
18630 18631 18640 18641 1 180.0000771 15.1670000 2
18632 18631 18640 18638 1 180.0000771 15.1670000 2
18632 18631 18640 18641 1 180.0000771 15.1670000 2
18633 18632 18631 18640 1 180.0000771 15.1670000 2
18634 18632 18631 18640 1 180.0000771 15.1670000 2
18631 18632 18634 18635 1 180.0000771 15.1670000 2
18631 18632 18634 18636 1 180.0000771 15.1670000 2
18633 18632 18634 18635 1 180.0000771 15.1670000 2
18633 18632 18634 18636 1 180.0000771 15.1670000 2
18632 18634 18636 18637 1 180.0000771 15.1670000 2
18632 18634 18636 18638 1 180.0000771 15.1670000 2
18635 18634 18636 18637 1 180.0000771 15.1670000 2
18635 18634 18636 18638 1 180.0000771 15.1670000 2
18632 18636 18634 18635 4 180.0000771 4.6024000 2
18634 18636 18638 18639 1 180.0000771 15.1670000 2
18634 18636 18638 18640 1 180.0000771 15.1670000 2
18637 18636 18638 18639 1 180.0000771 15.1670000 2
18637 18636 18638 18640 1 180.0000771 15.1670000 2
18634 18638 18636 18637 4 180.0000771 4.6024000 2
18631 18638 18640 18641 4 180.0000771 4.6024000 2
18636 18638 18640 18641 1 180.0000771 15.1670000 2
18639 18638 18640 18641 1 180.0000771 15.1670000 2
18631 18640 18638 18636 1 180.0000771 15.1670000 2
18631 18640 18638 18639 1 180.0000771 15.1670000 2
18636 18640 18638 18639 4 180.0000771 4.6024000 2
18642 18643 18644 18645 1 180.0000771 15.1670000 2
18642 18643 18644 18646 1 180.0000771 15.1670000 2
18645 18643 18644 18646 4 180.0000771 4.6024000 2
18642 18643 18652 18644 4 180.0000771 4.6024000 2
18642 18643 18652 18650 1 180.0000771 15.1670000 2
18642 18643 18652 18653 1 180.0000771 15.1670000 2
18644 18643 18652 18650 1 180.0000771 15.1670000 2
18644 18643 18652 18653 1 180.0000771 15.1670000 2
18645 18644 18643 18652 1 180.0000771 15.1670000 2
18646 18644 18643 18652 1 180.0000771 15.1670000 2
18643 18644 18646 18647 1 180.0000771 15.1670000 2
18643 18644 18646 18648 1 180.0000771 15.1670000 2
18645 18644 18646 18647 1 180.0000771 15.1670000 2
18645 18644 18646 18648 1 180.0000771 15.1670000 2
18644 18646 18648 18649 1 180.0000771 15.1670000 2
18644 18646 18648 18650 1 180.0000771 15.1670000 2
18647 18646 18648 18649 1 180.0000771 15.1670000 2
18647 18646 18648 18650 1 180.0000771 15.1670000 2
18644 18648 18646 18647 4 180.0000771 4.6024000 2
18646 18648 18650 18651 1 180.0000771 15.1670000 2
18646 18648 18650 18652 1 180.0000771 15.1670000 2
18649 18648 18650 18651 1 180.0000771 15.1670000 2
18649 18648 18650 18652 1 180.0000771 15.1670000 2
18646 18650 18648 18649 4 180.0000771 4.6024000 2
18643 18650 18652 18653 4 180.0000771 4.6024000 2
18648 18650 18652 18653 1 180.0000771 15.1670000 2
18651 18650 18652 18653 1 180.0000771 15.1670000 2
18643 18652 18650 18648 1 180.0000771 15.1670000 2
18643 18652 18650 18651 1 180.0000771 15.1670000 2
18648 18652 18650 18651 4 180.0000771 4.6024000 2
18654 18655 18656 18657 1 180.0000771 15.1670000 2
18654 18655 18656 18658 1 180.0000771 15.1670000 2
18657 18655 18656 18658 4 180.0000771 4.6024000 2
18654 18655 18664 18656 4 180.0000771 4.6024000 2
18654 18655 18664 18662 1 180.0000771 15.1670000 2
18654 18655 18664 18665 1 180.0000771 15.1670000 2
18656 18655 18664 18662 1 180.0000771 15.1670000 2
18656 18655 18664 18665 1 180.0000771 15.1670000 2
18657 18656 18655 18664 1 180.0000771 15.1670000 2
18658 18656 18655 18664 1 180.0000771 15.1670000 2
18655 18656 18658 18659 1 180.0000771 15.1670000 2
18655 18656 18658 18660 1 180.0000771 15.1670000 2
18657 18656 18658 18659 1 180.0000771 15.1670000 2
18657 18656 18658 18660 1 180.0000771 15.1670000 2
18656 18658 18660 18661 1 180.0000771 15.1670000 2
18656 18658 18660 18662 1 180.0000771 15.1670000 2
18659 18658 18660 18661 1 180.0000771 15.1670000 2
18659 18658 18660 18662 1 180.0000771 15.1670000 2
18656 18660 18658 18659 4 180.0000771 4.6024000 2
18658 18660 18662 18663 1 180.0000771 15.1670000 2
18658 18660 18662 18664 1 180.0000771 15.1670000 2
18661 18660 18662 18663 1 180.0000771 15.1670000 2
18661 18660 18662 18664 1 180.0000771 15.1670000 2
18658 18662 18660 18661 4 180.0000771 4.6024000 2
18655 18662 18664 18665 4 180.0000771 4.6024000 2
18660 18662 18664 18665 1 180.0000771 15.1670000 2
18663 18662 18664 18665 1 180.0000771 15.1670000 2
18655 18664 18662 18660 1 180.0000771 15.1670000 2
18655 18664 18662 18663 1 180.0000771 15.1670000 2
18660 18664 18662 18663 4 180.0000771 4.6024000 2
18666 18667 18668 18669 1 180.0000771 15.1670000 2
18666 18667 18668 18670 1 180.0000771 15.1670000 2
18669 18667 18668 18670 4 180.0000771 4.6024000 2
18666 18667 18676 18668 4 180.0000771 4.6024000 2
18666 18667 18676 18674 1 180.0000771 15.1670000 2
18666 18667 18676 18677 1 180.0000771 15.1670000 2
18668 18667 18676 18674 1 180.0000771 15.1670000 2
18668 18667 18676 18677 1 180.0000771 15.1670000 2
18669 18668 18667 18676 1 180.0000771 15.1670000 2
18670 18668 18667 18676 1 180.0000771 15.1670000 2
18667 18668 18670 18671 1 180.0000771 15.1670000 2
18667 18668 18670 18672 1 180.0000771 15.1670000 2
18669 18668 18670 18671 1 180.0000771 15.1670000 2
18669 18668 18670 18672 1 180.0000771 15.1670000 2
18668 18670 18672 18673 1 180.0000771 15.1670000 2
18668 18670 18672 18674 1 180.0000771 15.1670000 2
18671 18670 18672 18673 1 180.0000771 15.1670000 2
18671 18670 18672 18674 1 180.0000771 15.1670000 2
18668 18672 18670 18671 4 180.0000771 4.6024000 2
18670 18672 18674 18675 1 180.0000771 15.1670000 2
18670 18672 18674 18676 1 180.0000771 15.1670000 2
18673 18672 18674 18675 1 180.0000771 15.1670000 2
18673 18672 18674 18676 1 180.0000771 15.1670000 2
18670 18674 18672 18673 4 180.0000771 4.6024000 2
18667 18674 18676 18677 4 180.0000771 4.6024000 2
18672 18674 18676 18677 1 180.0000771 15.1670000 2
18675 18674 18676 18677 1 180.0000771 15.1670000 2
18667 18676 18674 18672 1 180.0000771 15.1670000 2
18667 18676 18674 18675 1 180.0000771 15.1670000 2
18672 18676 18674 18675 4 180.0000771 4.6024000 2
18678 18679 18680 18681 1 180.0000771 15.1670000 2
18678 18679 18680 18682 1 180.0000771 15.1670000 2
18681 18679 18680 18682 4 180.0000771 4.6024000 2
18678 18679 18688 18680 4 180.0000771 4.6024000 2
18678 18679 18688 18686 1 180.0000771 15.1670000 2
18678 18679 18688 18689 1 180.0000771 15.1670000 2
18680 18679 18688 18686 1 180.0000771 15.1670000 2
18680 18679 18688 18689 1 180.0000771 15.1670000 2
18681 18680 18679 18688 1 180.0000771 15.1670000 2
18682 18680 18679 18688 1 180.0000771 15.1670000 2
18679 18680 18682 18683 1 180.0000771 15.1670000 2
18679 18680 18682 18684 1 180.0000771 15.1670000 2
18681 18680 18682 18683 1 180.0000771 15.1670000 2
18681 18680 18682 18684 1 180.0000771 15.1670000 2
18680 18682 18684 18685 1 180.0000771 15.1670000 2
18680 18682 18684 18686 1 180.0000771 15.1670000 2
18683 18682 18684 18685 1 180.0000771 15.1670000 2
18683 18682 18684 18686 1 180.0000771 15.1670000 2
18680 18684 18682 18683 4 180.0000771 4.6024000 2
18682 18684 18686 18687 1 180.0000771 15.1670000 2
18682 18684 18686 18688 1 180.0000771 15.1670000 2
18685 18684 18686 18687 1 180.0000771 15.1670000 2
18685 18684 18686 18688 1 180.0000771 15.1670000 2
18682 18686 18684 18685 4 180.0000771 4.6024000 2
18679 18686 18688 18689 4 180.0000771 4.6024000 2
18684 18686 18688 18689 1 180.0000771 15.1670000 2
18687 18686 18688 18689 1 180.0000771 15.1670000 2
18679 18688 18686 18684 1 180.0000771 15.1670000 2
18679 18688 18686 18687 1 180.0000771 15.1670000 2
18684 18688 18686 18687 4 180.0000771 4.6024000 2
18690 18691 18692 18693 1 180.0000771 15.1670000 2
18690 18691 18692 18694 1 180.0000771 15.1670000 2
18693 18691 18692 18694 4 180.0000771 4.6024000 2
18690 18691 18700 18692 4 180.0000771 4.6024000 2
18690 18691 18700 18698 1 180.0000771 15.1670000 2
18690 18691 18700 18701 1 180.0000771 15.1670000 2
18692 18691 18700 18698 1 180.0000771 15.1670000 2
18692 18691 18700 18701 1 180.0000771 15.1670000 2
18693 18692 18691 18700 1 180.0000771 15.1670000 2
18694 18692 18691 18700 1 180.0000771 15.1670000 2
18691 18692 18694 18695 1 180.0000771 15.1670000 2
18691 18692 18694 18696 1 180.0000771 15.1670000 2
18693 18692 18694 18695 1 180.0000771 15.1670000 2
18693 18692 18694 18696 1 180.0000771 15.1670000 2
18692 18694 18696 18697 1 180.0000771 15.1670000 2
18692 18694 18696 18698 1 180.0000771 15.1670000 2
18695 18694 18696 18697 1 180.0000771 15.1670000 2
18695 18694 18696 18698 1 180.0000771 15.1670000 2
18692 18696 18694 18695 4 180.0000771 4.6024000 2
18694 18696 18698 18699 1 180.0000771 15.1670000 2
18694 18696 18698 18700 1 180.0000771 15.1670000 2
18697 18696 18698 18699 1 180.0000771 15.1670000 2
18697 18696 18698 18700 1 180.0000771 15.1670000 2
18694 18698 18696 18697 4 180.0000771 4.6024000 2
18691 18698 18700 18701 4 180.0000771 4.6024000 2
18696 18698 18700 18701 1 180.0000771 15.1670000 2
18699 18698 18700 18701 1 180.0000771 15.1670000 2
18691 18700 18698 18696 1 180.0000771 15.1670000 2
18691 18700 18698 18699 1 180.0000771 15.1670000 2
18696 18700 18698 18699 4 180.0000771 4.6024000 2
18702 18703 18704 18705 1 180.0000771 15.1670000 2
18702 18703 18704 18706 1 180.0000771 15.1670000 2
18705 18703 18704 18706 4 180.0000771 4.6024000 2
18702 18703 18712 18704 4 180.0000771 4.6024000 2
18702 18703 18712 18710 1 180.0000771 15.1670000 2
18702 18703 18712 18713 1 180.0000771 15.1670000 2
18704 18703 18712 18710 1 180.0000771 15.1670000 2
18704 18703 18712 18713 1 180.0000771 15.1670000 2
18705 18704 18703 18712 1 180.0000771 15.1670000 2
18706 18704 18703 18712 1 180.0000771 15.1670000 2
18703 18704 18706 18707 1 180.0000771 15.1670000 2
18703 18704 18706 18708 1 180.0000771 15.1670000 2
18705 18704 18706 18707 1 180.0000771 15.1670000 2
18705 18704 18706 18708 1 180.0000771 15.1670000 2
18704 18706 18708 18709 1 180.0000771 15.1670000 2
18704 18706 18708 18710 1 180.0000771 15.1670000 2
18707 18706 18708 18709 1 180.0000771 15.1670000 2
18707 18706 18708 18710 1 180.0000771 15.1670000 2
18704 18708 18706 18707 4 180.0000771 4.6024000 2
18706 18708 18710 18711 1 180.0000771 15.1670000 2
18706 18708 18710 18712 1 180.0000771 15.1670000 2
18709 18708 18710 18711 1 180.0000771 15.1670000 2
18709 18708 18710 18712 1 180.0000771 15.1670000 2
18706 18710 18708 18709 4 180.0000771 4.6024000 2
18703 18710 18712 18713 4 180.0000771 4.6024000 2
18708 18710 18712 18713 1 180.0000771 15.1670000 2
18711 18710 18712 18713 1 180.0000771 15.1670000 2
18703 18712 18710 18708 1 180.0000771 15.1670000 2
18703 18712 18710 18711 1 180.0000771 15.1670000 2
18708 18712 18710 18711 4 180.0000771 4.6024000 2
18714 18715 18716 18717 1 180.0000771 15.1670000 2
18714 18715 18716 18718 1 180.0000771 15.1670000 2
18717 18715 18716 18718 4 180.0000771 4.6024000 2
18714 18715 18724 18716 4 180.0000771 4.6024000 2
18714 18715 18724 18722 1 180.0000771 15.1670000 2
18714 18715 18724 18725 1 180.0000771 15.1670000 2
18716 18715 18724 18722 1 180.0000771 15.1670000 2
18716 18715 18724 18725 1 180.0000771 15.1670000 2
18717 18716 18715 18724 1 180.0000771 15.1670000 2
18718 18716 18715 18724 1 180.0000771 15.1670000 2
18715 18716 18718 18719 1 180.0000771 15.1670000 2
18715 18716 18718 18720 1 180.0000771 15.1670000 2
18717 18716 18718 18719 1 180.0000771 15.1670000 2
18717 18716 18718 18720 1 180.0000771 15.1670000 2
18716 18718 18720 18721 1 180.0000771 15.1670000 2
18716 18718 18720 18722 1 180.0000771 15.1670000 2
18719 18718 18720 18721 1 180.0000771 15.1670000 2
18719 18718 18720 18722 1 180.0000771 15.1670000 2
18716 18720 18718 18719 4 180.0000771 4.6024000 2
18718 18720 18722 18723 1 180.0000771 15.1670000 2
18718 18720 18722 18724 1 180.0000771 15.1670000 2
18721 18720 18722 18723 1 180.0000771 15.1670000 2
18721 18720 18722 18724 1 180.0000771 15.1670000 2
18718 18722 18720 18721 4 180.0000771 4.6024000 2
18715 18722 18724 18725 4 180.0000771 4.6024000 2
18720 18722 18724 18725 1 180.0000771 15.1670000 2
18723 18722 18724 18725 1 180.0000771 15.1670000 2
18715 18724 18722 18720 1 180.0000771 15.1670000 2
18715 18724 18722 18723 1 180.0000771 15.1670000 2
18720 18724 18722 18723 4 180.0000771 4.6024000 2
18726 18727 18728 18729 1 180.0000771 15.1670000 2
18726 18727 18728 18730 1 180.0000771 15.1670000 2
18729 18727 18728 18730 4 180.0000771 4.6024000 2
18726 18727 18736 18728 4 180.0000771 4.6024000 2
18726 18727 18736 18734 1 180.0000771 15.1670000 2
18726 18727 18736 18737 1 180.0000771 15.1670000 2
18728 18727 18736 18734 1 180.0000771 15.1670000 2
18728 18727 18736 18737 1 180.0000771 15.1670000 2
18729 18728 18727 18736 1 180.0000771 15.1670000 2
18730 18728 18727 18736 1 180.0000771 15.1670000 2
18727 18728 18730 18731 1 180.0000771 15.1670000 2
18727 18728 18730 18732 1 180.0000771 15.1670000 2
18729 18728 18730 18731 1 180.0000771 15.1670000 2
18729 18728 18730 18732 1 180.0000771 15.1670000 2
18728 18730 18732 18733 1 180.0000771 15.1670000 2
18728 18730 18732 18734 1 180.0000771 15.1670000 2
18731 18730 18732 18733 1 180.0000771 15.1670000 2
18731 18730 18732 18734 1 180.0000771 15.1670000 2
18728 18732 18730 18731 4 180.0000771 4.6024000 2
18730 18732 18734 18735 1 180.0000771 15.1670000 2
18730 18732 18734 18736 1 180.0000771 15.1670000 2
18733 18732 18734 18735 1 180.0000771 15.1670000 2
18733 18732 18734 18736 1 180.0000771 15.1670000 2
18730 18734 18732 18733 4 180.0000771 4.6024000 2
18727 18734 18736 18737 4 180.0000771 4.6024000 2
18732 18734 18736 18737 1 180.0000771 15.1670000 2
18735 18734 18736 18737 1 180.0000771 15.1670000 2
18727 18736 18734 18732 1 180.0000771 15.1670000 2
18727 18736 18734 18735 1 180.0000771 15.1670000 2
18732 18736 18734 18735 4 180.0000771 4.6024000 2
18738 18739 18740 18741 1 180.0000771 15.1670000 2
18738 18739 18740 18742 1 180.0000771 15.1670000 2
18741 18739 18740 18742 4 180.0000771 4.6024000 2
18738 18739 18748 18740 4 180.0000771 4.6024000 2
18738 18739 18748 18746 1 180.0000771 15.1670000 2
18738 18739 18748 18749 1 180.0000771 15.1670000 2
18740 18739 18748 18746 1 180.0000771 15.1670000 2
18740 18739 18748 18749 1 180.0000771 15.1670000 2
18741 18740 18739 18748 1 180.0000771 15.1670000 2
18742 18740 18739 18748 1 180.0000771 15.1670000 2
18739 18740 18742 18743 1 180.0000771 15.1670000 2
18739 18740 18742 18744 1 180.0000771 15.1670000 2
18741 18740 18742 18743 1 180.0000771 15.1670000 2
18741 18740 18742 18744 1 180.0000771 15.1670000 2
18740 18742 18744 18745 1 180.0000771 15.1670000 2
18740 18742 18744 18746 1 180.0000771 15.1670000 2
18743 18742 18744 18745 1 180.0000771 15.1670000 2
18743 18742 18744 18746 1 180.0000771 15.1670000 2
18740 18744 18742 18743 4 180.0000771 4.6024000 2
18742 18744 18746 18747 1 180.0000771 15.1670000 2
18742 18744 18746 18748 1 180.0000771 15.1670000 2
18745 18744 18746 18747 1 180.0000771 15.1670000 2
18745 18744 18746 18748 1 180.0000771 15.1670000 2
18742 18746 18744 18745 4 180.0000771 4.6024000 2
18739 18746 18748 18749 4 180.0000771 4.6024000 2
18744 18746 18748 18749 1 180.0000771 15.1670000 2
18747 18746 18748 18749 1 180.0000771 15.1670000 2
18739 18748 18746 18744 1 180.0000771 15.1670000 2
18739 18748 18746 18747 1 180.0000771 15.1670000 2
18744 18748 18746 18747 4 180.0000771 4.6024000 2
18750 18751 18752 18753 1 180.0000771 15.1670000 2
18750 18751 18752 18754 1 180.0000771 15.1670000 2
18753 18751 18752 18754 4 180.0000771 4.6024000 2
18750 18751 18760 18752 4 180.0000771 4.6024000 2
18750 18751 18760 18758 1 180.0000771 15.1670000 2
18750 18751 18760 18761 1 180.0000771 15.1670000 2
18752 18751 18760 18758 1 180.0000771 15.1670000 2
18752 18751 18760 18761 1 180.0000771 15.1670000 2
18753 18752 18751 18760 1 180.0000771 15.1670000 2
18754 18752 18751 18760 1 180.0000771 15.1670000 2
18751 18752 18754 18755 1 180.0000771 15.1670000 2
18751 18752 18754 18756 1 180.0000771 15.1670000 2
18753 18752 18754 18755 1 180.0000771 15.1670000 2
18753 18752 18754 18756 1 180.0000771 15.1670000 2
18752 18754 18756 18757 1 180.0000771 15.1670000 2
18752 18754 18756 18758 1 180.0000771 15.1670000 2
18755 18754 18756 18757 1 180.0000771 15.1670000 2
18755 18754 18756 18758 1 180.0000771 15.1670000 2
18752 18756 18754 18755 4 180.0000771 4.6024000 2
18754 18756 18758 18759 1 180.0000771 15.1670000 2
18754 18756 18758 18760 1 180.0000771 15.1670000 2
18757 18756 18758 18759 1 180.0000771 15.1670000 2
18757 18756 18758 18760 1 180.0000771 15.1670000 2
18754 18758 18756 18757 4 180.0000771 4.6024000 2
18751 18758 18760 18761 4 180.0000771 4.6024000 2
18756 18758 18760 18761 1 180.0000771 15.1670000 2
18759 18758 18760 18761 1 180.0000771 15.1670000 2
18751 18760 18758 18756 1 180.0000771 15.1670000 2
18751 18760 18758 18759 1 180.0000771 15.1670000 2
18756 18760 18758 18759 4 180.0000771 4.6024000 2
18762 18763 18764 18765 1 180.0000771 15.1670000 2
18762 18763 18764 18766 1 180.0000771 15.1670000 2
18765 18763 18764 18766 4 180.0000771 4.6024000 2
18762 18763 18772 18764 4 180.0000771 4.6024000 2
18762 18763 18772 18770 1 180.0000771 15.1670000 2
18762 18763 18772 18773 1 180.0000771 15.1670000 2
18764 18763 18772 18770 1 180.0000771 15.1670000 2
18764 18763 18772 18773 1 180.0000771 15.1670000 2
18765 18764 18763 18772 1 180.0000771 15.1670000 2
18766 18764 18763 18772 1 180.0000771 15.1670000 2
18763 18764 18766 18767 1 180.0000771 15.1670000 2
18763 18764 18766 18768 1 180.0000771 15.1670000 2
18765 18764 18766 18767 1 180.0000771 15.1670000 2
18765 18764 18766 18768 1 180.0000771 15.1670000 2
18764 18766 18768 18769 1 180.0000771 15.1670000 2
18764 18766 18768 18770 1 180.0000771 15.1670000 2
18767 18766 18768 18769 1 180.0000771 15.1670000 2
18767 18766 18768 18770 1 180.0000771 15.1670000 2
18764 18768 18766 18767 4 180.0000771 4.6024000 2
18766 18768 18770 18771 1 180.0000771 15.1670000 2
18766 18768 18770 18772 1 180.0000771 15.1670000 2
18769 18768 18770 18771 1 180.0000771 15.1670000 2
18769 18768 18770 18772 1 180.0000771 15.1670000 2
18766 18770 18768 18769 4 180.0000771 4.6024000 2
18763 18770 18772 18773 4 180.0000771 4.6024000 2
18768 18770 18772 18773 1 180.0000771 15.1670000 2
18771 18770 18772 18773 1 180.0000771 15.1670000 2
18763 18772 18770 18768 1 180.0000771 15.1670000 2
18763 18772 18770 18771 1 180.0000771 15.1670000 2
18768 18772 18770 18771 4 180.0000771 4.6024000 2
18774 18775 18776 18777 1 180.0000771 15.1670000 2
18774 18775 18776 18778 1 180.0000771 15.1670000 2
18777 18775 18776 18778 4 180.0000771 4.6024000 2
18774 18775 18784 18776 4 180.0000771 4.6024000 2
18774 18775 18784 18782 1 180.0000771 15.1670000 2
18774 18775 18784 18785 1 180.0000771 15.1670000 2
18776 18775 18784 18782 1 180.0000771 15.1670000 2
18776 18775 18784 18785 1 180.0000771 15.1670000 2
18777 18776 18775 18784 1 180.0000771 15.1670000 2
18778 18776 18775 18784 1 180.0000771 15.1670000 2
18775 18776 18778 18779 1 180.0000771 15.1670000 2
18775 18776 18778 18780 1 180.0000771 15.1670000 2
18777 18776 18778 18779 1 180.0000771 15.1670000 2
18777 18776 18778 18780 1 180.0000771 15.1670000 2
18776 18778 18780 18781 1 180.0000771 15.1670000 2
18776 18778 18780 18782 1 180.0000771 15.1670000 2
18779 18778 18780 18781 1 180.0000771 15.1670000 2
18779 18778 18780 18782 1 180.0000771 15.1670000 2
18776 18780 18778 18779 4 180.0000771 4.6024000 2
18778 18780 18782 18783 1 180.0000771 15.1670000 2
18778 18780 18782 18784 1 180.0000771 15.1670000 2
18781 18780 18782 18783 1 180.0000771 15.1670000 2
18781 18780 18782 18784 1 180.0000771 15.1670000 2
18778 18782 18780 18781 4 180.0000771 4.6024000 2
18775 18782 18784 18785 4 180.0000771 4.6024000 2
18780 18782 18784 18785 1 180.0000771 15.1670000 2
18783 18782 18784 18785 1 180.0000771 15.1670000 2
18775 18784 18782 18780 1 180.0000771 15.1670000 2
18775 18784 18782 18783 1 180.0000771 15.1670000 2
18780 18784 18782 18783 4 180.0000771 4.6024000 2
18786 18787 18788 18789 1 180.0000771 15.1670000 2
18786 18787 18788 18790 1 180.0000771 15.1670000 2
18789 18787 18788 18790 4 180.0000771 4.6024000 2
18786 18787 18796 18788 4 180.0000771 4.6024000 2
18786 18787 18796 18794 1 180.0000771 15.1670000 2
18786 18787 18796 18797 1 180.0000771 15.1670000 2
18788 18787 18796 18794 1 180.0000771 15.1670000 2
18788 18787 18796 18797 1 180.0000771 15.1670000 2
18789 18788 18787 18796 1 180.0000771 15.1670000 2
18790 18788 18787 18796 1 180.0000771 15.1670000 2
18787 18788 18790 18791 1 180.0000771 15.1670000 2
18787 18788 18790 18792 1 180.0000771 15.1670000 2
18789 18788 18790 18791 1 180.0000771 15.1670000 2
18789 18788 18790 18792 1 180.0000771 15.1670000 2
18788 18790 18792 18793 1 180.0000771 15.1670000 2
18788 18790 18792 18794 1 180.0000771 15.1670000 2
18791 18790 18792 18793 1 180.0000771 15.1670000 2
18791 18790 18792 18794 1 180.0000771 15.1670000 2
18788 18792 18790 18791 4 180.0000771 4.6024000 2
18790 18792 18794 18795 1 180.0000771 15.1670000 2
18790 18792 18794 18796 1 180.0000771 15.1670000 2
18793 18792 18794 18795 1 180.0000771 15.1670000 2
18793 18792 18794 18796 1 180.0000771 15.1670000 2
18790 18794 18792 18793 4 180.0000771 4.6024000 2
18787 18794 18796 18797 4 180.0000771 4.6024000 2
18792 18794 18796 18797 1 180.0000771 15.1670000 2
18795 18794 18796 18797 1 180.0000771 15.1670000 2
18787 18796 18794 18792 1 180.0000771 15.1670000 2
18787 18796 18794 18795 1 180.0000771 15.1670000 2
18792 18796 18794 18795 4 180.0000771 4.6024000 2
18798 18799 18800 18801 1 180.0000771 15.1670000 2
18798 18799 18800 18802 1 180.0000771 15.1670000 2
18801 18799 18800 18802 4 180.0000771 4.6024000 2
18798 18799 18808 18800 4 180.0000771 4.6024000 2
18798 18799 18808 18806 1 180.0000771 15.1670000 2
18798 18799 18808 18809 1 180.0000771 15.1670000 2
18800 18799 18808 18806 1 180.0000771 15.1670000 2
18800 18799 18808 18809 1 180.0000771 15.1670000 2
18801 18800 18799 18808 1 180.0000771 15.1670000 2
18802 18800 18799 18808 1 180.0000771 15.1670000 2
18799 18800 18802 18803 1 180.0000771 15.1670000 2
18799 18800 18802 18804 1 180.0000771 15.1670000 2
18801 18800 18802 18803 1 180.0000771 15.1670000 2
18801 18800 18802 18804 1 180.0000771 15.1670000 2
18800 18802 18804 18805 1 180.0000771 15.1670000 2
18800 18802 18804 18806 1 180.0000771 15.1670000 2
18803 18802 18804 18805 1 180.0000771 15.1670000 2
18803 18802 18804 18806 1 180.0000771 15.1670000 2
18800 18804 18802 18803 4 180.0000771 4.6024000 2
18802 18804 18806 18807 1 180.0000771 15.1670000 2
18802 18804 18806 18808 1 180.0000771 15.1670000 2
18805 18804 18806 18807 1 180.0000771 15.1670000 2
18805 18804 18806 18808 1 180.0000771 15.1670000 2
18802 18806 18804 18805 4 180.0000771 4.6024000 2
18799 18806 18808 18809 4 180.0000771 4.6024000 2
18804 18806 18808 18809 1 180.0000771 15.1670000 2
18807 18806 18808 18809 1 180.0000771 15.1670000 2
18799 18808 18806 18804 1 180.0000771 15.1670000 2
18799 18808 18806 18807 1 180.0000771 15.1670000 2
18804 18808 18806 18807 4 180.0000771 4.6024000 2
18810 18811 18812 18813 1 180.0000771 15.1670000 2
18810 18811 18812 18814 1 180.0000771 15.1670000 2
18813 18811 18812 18814 4 180.0000771 4.6024000 2
18810 18811 18820 18812 4 180.0000771 4.6024000 2
18810 18811 18820 18818 1 180.0000771 15.1670000 2
18810 18811 18820 18821 1 180.0000771 15.1670000 2
18812 18811 18820 18818 1 180.0000771 15.1670000 2
18812 18811 18820 18821 1 180.0000771 15.1670000 2
18813 18812 18811 18820 1 180.0000771 15.1670000 2
18814 18812 18811 18820 1 180.0000771 15.1670000 2
18811 18812 18814 18815 1 180.0000771 15.1670000 2
18811 18812 18814 18816 1 180.0000771 15.1670000 2
18813 18812 18814 18815 1 180.0000771 15.1670000 2
18813 18812 18814 18816 1 180.0000771 15.1670000 2
18812 18814 18816 18817 1 180.0000771 15.1670000 2
18812 18814 18816 18818 1 180.0000771 15.1670000 2
18815 18814 18816 18817 1 180.0000771 15.1670000 2
18815 18814 18816 18818 1 180.0000771 15.1670000 2
18812 18816 18814 18815 4 180.0000771 4.6024000 2
18814 18816 18818 18819 1 180.0000771 15.1670000 2
18814 18816 18818 18820 1 180.0000771 15.1670000 2
18817 18816 18818 18819 1 180.0000771 15.1670000 2
18817 18816 18818 18820 1 180.0000771 15.1670000 2
18814 18818 18816 18817 4 180.0000771 4.6024000 2
18811 18818 18820 18821 4 180.0000771 4.6024000 2
18816 18818 18820 18821 1 180.0000771 15.1670000 2
18819 18818 18820 18821 1 180.0000771 15.1670000 2
18811 18820 18818 18816 1 180.0000771 15.1670000 2
18811 18820 18818 18819 1 180.0000771 15.1670000 2
18816 18820 18818 18819 4 180.0000771 4.6024000 2
18822 18823 18824 18825 1 180.0000771 15.1670000 2
18822 18823 18824 18826 1 180.0000771 15.1670000 2
18825 18823 18824 18826 4 180.0000771 4.6024000 2
18822 18823 18832 18824 4 180.0000771 4.6024000 2
18822 18823 18832 18830 1 180.0000771 15.1670000 2
18822 18823 18832 18833 1 180.0000771 15.1670000 2
18824 18823 18832 18830 1 180.0000771 15.1670000 2
18824 18823 18832 18833 1 180.0000771 15.1670000 2
18825 18824 18823 18832 1 180.0000771 15.1670000 2
18826 18824 18823 18832 1 180.0000771 15.1670000 2
18823 18824 18826 18827 1 180.0000771 15.1670000 2
18823 18824 18826 18828 1 180.0000771 15.1670000 2
18825 18824 18826 18827 1 180.0000771 15.1670000 2
18825 18824 18826 18828 1 180.0000771 15.1670000 2
18824 18826 18828 18829 1 180.0000771 15.1670000 2
18824 18826 18828 18830 1 180.0000771 15.1670000 2
18827 18826 18828 18829 1 180.0000771 15.1670000 2
18827 18826 18828 18830 1 180.0000771 15.1670000 2
18824 18828 18826 18827 4 180.0000771 4.6024000 2
18826 18828 18830 18831 1 180.0000771 15.1670000 2
18826 18828 18830 18832 1 180.0000771 15.1670000 2
18829 18828 18830 18831 1 180.0000771 15.1670000 2
18829 18828 18830 18832 1 180.0000771 15.1670000 2
18826 18830 18828 18829 4 180.0000771 4.6024000 2
18823 18830 18832 18833 4 180.0000771 4.6024000 2
18828 18830 18832 18833 1 180.0000771 15.1670000 2
18831 18830 18832 18833 1 180.0000771 15.1670000 2
18823 18832 18830 18828 1 180.0000771 15.1670000 2
18823 18832 18830 18831 1 180.0000771 15.1670000 2
18828 18832 18830 18831 4 180.0000771 4.6024000 2
18834 18835 18836 18837 1 180.0000771 15.1670000 2
18834 18835 18836 18838 1 180.0000771 15.1670000 2
18837 18835 18836 18838 4 180.0000771 4.6024000 2
18834 18835 18844 18836 4 180.0000771 4.6024000 2
18834 18835 18844 18842 1 180.0000771 15.1670000 2
18834 18835 18844 18845 1 180.0000771 15.1670000 2
18836 18835 18844 18842 1 180.0000771 15.1670000 2
18836 18835 18844 18845 1 180.0000771 15.1670000 2
18837 18836 18835 18844 1 180.0000771 15.1670000 2
18838 18836 18835 18844 1 180.0000771 15.1670000 2
18835 18836 18838 18839 1 180.0000771 15.1670000 2
18835 18836 18838 18840 1 180.0000771 15.1670000 2
18837 18836 18838 18839 1 180.0000771 15.1670000 2
18837 18836 18838 18840 1 180.0000771 15.1670000 2
18836 18838 18840 18841 1 180.0000771 15.1670000 2
18836 18838 18840 18842 1 180.0000771 15.1670000 2
18839 18838 18840 18841 1 180.0000771 15.1670000 2
18839 18838 18840 18842 1 180.0000771 15.1670000 2
18836 18840 18838 18839 4 180.0000771 4.6024000 2
18838 18840 18842 18843 1 180.0000771 15.1670000 2
18838 18840 18842 18844 1 180.0000771 15.1670000 2
18841 18840 18842 18843 1 180.0000771 15.1670000 2
18841 18840 18842 18844 1 180.0000771 15.1670000 2
18838 18842 18840 18841 4 180.0000771 4.6024000 2
18835 18842 18844 18845 4 180.0000771 4.6024000 2
18840 18842 18844 18845 1 180.0000771 15.1670000 2
18843 18842 18844 18845 1 180.0000771 15.1670000 2
18835 18844 18842 18840 1 180.0000771 15.1670000 2
18835 18844 18842 18843 1 180.0000771 15.1670000 2
18840 18844 18842 18843 4 180.0000771 4.6024000 2
18846 18847 18848 18849 1 180.0000771 15.1670000 2
18846 18847 18848 18850 1 180.0000771 15.1670000 2
18849 18847 18848 18850 4 180.0000771 4.6024000 2
18846 18847 18856 18848 4 180.0000771 4.6024000 2
18846 18847 18856 18854 1 180.0000771 15.1670000 2
18846 18847 18856 18857 1 180.0000771 15.1670000 2
18848 18847 18856 18854 1 180.0000771 15.1670000 2
18848 18847 18856 18857 1 180.0000771 15.1670000 2
18849 18848 18847 18856 1 180.0000771 15.1670000 2
18850 18848 18847 18856 1 180.0000771 15.1670000 2
18847 18848 18850 18851 1 180.0000771 15.1670000 2
18847 18848 18850 18852 1 180.0000771 15.1670000 2
18849 18848 18850 18851 1 180.0000771 15.1670000 2
18849 18848 18850 18852 1 180.0000771 15.1670000 2
18848 18850 18852 18853 1 180.0000771 15.1670000 2
18848 18850 18852 18854 1 180.0000771 15.1670000 2
18851 18850 18852 18853 1 180.0000771 15.1670000 2
18851 18850 18852 18854 1 180.0000771 15.1670000 2
18848 18852 18850 18851 4 180.0000771 4.6024000 2
18850 18852 18854 18855 1 180.0000771 15.1670000 2
18850 18852 18854 18856 1 180.0000771 15.1670000 2
18853 18852 18854 18855 1 180.0000771 15.1670000 2
18853 18852 18854 18856 1 180.0000771 15.1670000 2
18850 18854 18852 18853 4 180.0000771 4.6024000 2
18847 18854 18856 18857 4 180.0000771 4.6024000 2
18852 18854 18856 18857 1 180.0000771 15.1670000 2
18855 18854 18856 18857 1 180.0000771 15.1670000 2
18847 18856 18854 18852 1 180.0000771 15.1670000 2
18847 18856 18854 18855 1 180.0000771 15.1670000 2
18852 18856 18854 18855 4 180.0000771 4.6024000 2
18858 18859 18860 18861 1 180.0000771 15.1670000 2
18858 18859 18860 18862 1 180.0000771 15.1670000 2
18861 18859 18860 18862 4 180.0000771 4.6024000 2
18858 18859 18868 18860 4 180.0000771 4.6024000 2
18858 18859 18868 18866 1 180.0000771 15.1670000 2
18858 18859 18868 18869 1 180.0000771 15.1670000 2
18860 18859 18868 18866 1 180.0000771 15.1670000 2
18860 18859 18868 18869 1 180.0000771 15.1670000 2
18861 18860 18859 18868 1 180.0000771 15.1670000 2
18862 18860 18859 18868 1 180.0000771 15.1670000 2
18859 18860 18862 18863 1 180.0000771 15.1670000 2
18859 18860 18862 18864 1 180.0000771 15.1670000 2
18861 18860 18862 18863 1 180.0000771 15.1670000 2
18861 18860 18862 18864 1 180.0000771 15.1670000 2
18860 18862 18864 18865 1 180.0000771 15.1670000 2
18860 18862 18864 18866 1 180.0000771 15.1670000 2
18863 18862 18864 18865 1 180.0000771 15.1670000 2
18863 18862 18864 18866 1 180.0000771 15.1670000 2
18860 18864 18862 18863 4 180.0000771 4.6024000 2
18862 18864 18866 18867 1 180.0000771 15.1670000 2
18862 18864 18866 18868 1 180.0000771 15.1670000 2
18865 18864 18866 18867 1 180.0000771 15.1670000 2
18865 18864 18866 18868 1 180.0000771 15.1670000 2
18862 18866 18864 18865 4 180.0000771 4.6024000 2
18859 18866 18868 18869 4 180.0000771 4.6024000 2
18864 18866 18868 18869 1 180.0000771 15.1670000 2
18867 18866 18868 18869 1 180.0000771 15.1670000 2
18859 18868 18866 18864 1 180.0000771 15.1670000 2
18859 18868 18866 18867 1 180.0000771 15.1670000 2
18864 18868 18866 18867 4 180.0000771 4.6024000 2
18870 18871 18872 18873 1 180.0000771 15.1670000 2
18870 18871 18872 18874 1 180.0000771 15.1670000 2
18873 18871 18872 18874 4 180.0000771 4.6024000 2
18870 18871 18880 18872 4 180.0000771 4.6024000 2
18870 18871 18880 18878 1 180.0000771 15.1670000 2
18870 18871 18880 18881 1 180.0000771 15.1670000 2
18872 18871 18880 18878 1 180.0000771 15.1670000 2
18872 18871 18880 18881 1 180.0000771 15.1670000 2
18873 18872 18871 18880 1 180.0000771 15.1670000 2
18874 18872 18871 18880 1 180.0000771 15.1670000 2
18871 18872 18874 18875 1 180.0000771 15.1670000 2
18871 18872 18874 18876 1 180.0000771 15.1670000 2
18873 18872 18874 18875 1 180.0000771 15.1670000 2
18873 18872 18874 18876 1 180.0000771 15.1670000 2
18872 18874 18876 18877 1 180.0000771 15.1670000 2
18872 18874 18876 18878 1 180.0000771 15.1670000 2
18875 18874 18876 18877 1 180.0000771 15.1670000 2
18875 18874 18876 18878 1 180.0000771 15.1670000 2
18872 18876 18874 18875 4 180.0000771 4.6024000 2
18874 18876 18878 18879 1 180.0000771 15.1670000 2
18874 18876 18878 18880 1 180.0000771 15.1670000 2
18877 18876 18878 18879 1 180.0000771 15.1670000 2
18877 18876 18878 18880 1 180.0000771 15.1670000 2
18874 18878 18876 18877 4 180.0000771 4.6024000 2
18871 18878 18880 18881 4 180.0000771 4.6024000 2
18876 18878 18880 18881 1 180.0000771 15.1670000 2
18879 18878 18880 18881 1 180.0000771 15.1670000 2
18871 18880 18878 18876 1 180.0000771 15.1670000 2
18871 18880 18878 18879 1 180.0000771 15.1670000 2
18876 18880 18878 18879 4 180.0000771 4.6024000 2
18882 18883 18884 18885 1 180.0000771 15.1670000 2
18882 18883 18884 18886 1 180.0000771 15.1670000 2
18885 18883 18884 18886 4 180.0000771 4.6024000 2
18882 18883 18892 18884 4 180.0000771 4.6024000 2
18882 18883 18892 18890 1 180.0000771 15.1670000 2
18882 18883 18892 18893 1 180.0000771 15.1670000 2
18884 18883 18892 18890 1 180.0000771 15.1670000 2
18884 18883 18892 18893 1 180.0000771 15.1670000 2
18885 18884 18883 18892 1 180.0000771 15.1670000 2
18886 18884 18883 18892 1 180.0000771 15.1670000 2
18883 18884 18886 18887 1 180.0000771 15.1670000 2
18883 18884 18886 18888 1 180.0000771 15.1670000 2
18885 18884 18886 18887 1 180.0000771 15.1670000 2
18885 18884 18886 18888 1 180.0000771 15.1670000 2
18884 18886 18888 18889 1 180.0000771 15.1670000 2
18884 18886 18888 18890 1 180.0000771 15.1670000 2
18887 18886 18888 18889 1 180.0000771 15.1670000 2
18887 18886 18888 18890 1 180.0000771 15.1670000 2
18884 18888 18886 18887 4 180.0000771 4.6024000 2
18886 18888 18890 18891 1 180.0000771 15.1670000 2
18886 18888 18890 18892 1 180.0000771 15.1670000 2
18889 18888 18890 18891 1 180.0000771 15.1670000 2
18889 18888 18890 18892 1 180.0000771 15.1670000 2
18886 18890 18888 18889 4 180.0000771 4.6024000 2
18883 18890 18892 18893 4 180.0000771 4.6024000 2
18888 18890 18892 18893 1 180.0000771 15.1670000 2
18891 18890 18892 18893 1 180.0000771 15.1670000 2
18883 18892 18890 18888 1 180.0000771 15.1670000 2
18883 18892 18890 18891 1 180.0000771 15.1670000 2
18888 18892 18890 18891 4 180.0000771 4.6024000 2
18894 18895 18896 18897 1 180.0000771 15.1670000 2
18894 18895 18896 18898 1 180.0000771 15.1670000 2
18897 18895 18896 18898 4 180.0000771 4.6024000 2
18894 18895 18904 18896 4 180.0000771 4.6024000 2
18894 18895 18904 18902 1 180.0000771 15.1670000 2
18894 18895 18904 18905 1 180.0000771 15.1670000 2
18896 18895 18904 18902 1 180.0000771 15.1670000 2
18896 18895 18904 18905 1 180.0000771 15.1670000 2
18897 18896 18895 18904 1 180.0000771 15.1670000 2
18898 18896 18895 18904 1 180.0000771 15.1670000 2
18895 18896 18898 18899 1 180.0000771 15.1670000 2
18895 18896 18898 18900 1 180.0000771 15.1670000 2
18897 18896 18898 18899 1 180.0000771 15.1670000 2
18897 18896 18898 18900 1 180.0000771 15.1670000 2
18896 18898 18900 18901 1 180.0000771 15.1670000 2
18896 18898 18900 18902 1 180.0000771 15.1670000 2
18899 18898 18900 18901 1 180.0000771 15.1670000 2
18899 18898 18900 18902 1 180.0000771 15.1670000 2
18896 18900 18898 18899 4 180.0000771 4.6024000 2
18898 18900 18902 18903 1 180.0000771 15.1670000 2
18898 18900 18902 18904 1 180.0000771 15.1670000 2
18901 18900 18902 18903 1 180.0000771 15.1670000 2
18901 18900 18902 18904 1 180.0000771 15.1670000 2
18898 18902 18900 18901 4 180.0000771 4.6024000 2
18895 18902 18904 18905 4 180.0000771 4.6024000 2
18900 18902 18904 18905 1 180.0000771 15.1670000 2
18903 18902 18904 18905 1 180.0000771 15.1670000 2
18895 18904 18902 18900 1 180.0000771 15.1670000 2
18895 18904 18902 18903 1 180.0000771 15.1670000 2
18900 18904 18902 18903 4 180.0000771 4.6024000 2
18906 18907 18908 18909 1 180.0000771 15.1670000 2
18906 18907 18908 18910 1 180.0000771 15.1670000 2
18909 18907 18908 18910 4 180.0000771 4.6024000 2
18906 18907 18916 18908 4 180.0000771 4.6024000 2
18906 18907 18916 18914 1 180.0000771 15.1670000 2
18906 18907 18916 18917 1 180.0000771 15.1670000 2
18908 18907 18916 18914 1 180.0000771 15.1670000 2
18908 18907 18916 18917 1 180.0000771 15.1670000 2
18909 18908 18907 18916 1 180.0000771 15.1670000 2
18910 18908 18907 18916 1 180.0000771 15.1670000 2
18907 18908 18910 18911 1 180.0000771 15.1670000 2
18907 18908 18910 18912 1 180.0000771 15.1670000 2
18909 18908 18910 18911 1 180.0000771 15.1670000 2
18909 18908 18910 18912 1 180.0000771 15.1670000 2
18908 18910 18912 18913 1 180.0000771 15.1670000 2
18908 18910 18912 18914 1 180.0000771 15.1670000 2
18911 18910 18912 18913 1 180.0000771 15.1670000 2
18911 18910 18912 18914 1 180.0000771 15.1670000 2
18908 18912 18910 18911 4 180.0000771 4.6024000 2
18910 18912 18914 18915 1 180.0000771 15.1670000 2
18910 18912 18914 18916 1 180.0000771 15.1670000 2
18913 18912 18914 18915 1 180.0000771 15.1670000 2
18913 18912 18914 18916 1 180.0000771 15.1670000 2
18910 18914 18912 18913 4 180.0000771 4.6024000 2
18907 18914 18916 18917 4 180.0000771 4.6024000 2
18912 18914 18916 18917 1 180.0000771 15.1670000 2
18915 18914 18916 18917 1 180.0000771 15.1670000 2
18907 18916 18914 18912 1 180.0000771 15.1670000 2
18907 18916 18914 18915 1 180.0000771 15.1670000 2
18912 18916 18914 18915 4 180.0000771 4.6024000 2
18918 18919 18920 18921 1 180.0000771 15.1670000 2
18918 18919 18920 18922 1 180.0000771 15.1670000 2
18921 18919 18920 18922 4 180.0000771 4.6024000 2
18918 18919 18928 18920 4 180.0000771 4.6024000 2
18918 18919 18928 18926 1 180.0000771 15.1670000 2
18918 18919 18928 18929 1 180.0000771 15.1670000 2
18920 18919 18928 18926 1 180.0000771 15.1670000 2
18920 18919 18928 18929 1 180.0000771 15.1670000 2
18921 18920 18919 18928 1 180.0000771 15.1670000 2
18922 18920 18919 18928 1 180.0000771 15.1670000 2
18919 18920 18922 18923 1 180.0000771 15.1670000 2
18919 18920 18922 18924 1 180.0000771 15.1670000 2
18921 18920 18922 18923 1 180.0000771 15.1670000 2
18921 18920 18922 18924 1 180.0000771 15.1670000 2
18920 18922 18924 18925 1 180.0000771 15.1670000 2
18920 18922 18924 18926 1 180.0000771 15.1670000 2
18923 18922 18924 18925 1 180.0000771 15.1670000 2
18923 18922 18924 18926 1 180.0000771 15.1670000 2
18920 18924 18922 18923 4 180.0000771 4.6024000 2
18922 18924 18926 18927 1 180.0000771 15.1670000 2
18922 18924 18926 18928 1 180.0000771 15.1670000 2
18925 18924 18926 18927 1 180.0000771 15.1670000 2
18925 18924 18926 18928 1 180.0000771 15.1670000 2
18922 18926 18924 18925 4 180.0000771 4.6024000 2
18919 18926 18928 18929 4 180.0000771 4.6024000 2
18924 18926 18928 18929 1 180.0000771 15.1670000 2
18927 18926 18928 18929 1 180.0000771 15.1670000 2
18919 18928 18926 18924 1 180.0000771 15.1670000 2
18919 18928 18926 18927 1 180.0000771 15.1670000 2
18924 18928 18926 18927 4 180.0000771 4.6024000 2
18930 18931 18932 18933 1 180.0000771 15.1670000 2
18930 18931 18932 18934 1 180.0000771 15.1670000 2
18933 18931 18932 18934 4 180.0000771 4.6024000 2
18930 18931 18940 18932 4 180.0000771 4.6024000 2
18930 18931 18940 18938 1 180.0000771 15.1670000 2
18930 18931 18940 18941 1 180.0000771 15.1670000 2
18932 18931 18940 18938 1 180.0000771 15.1670000 2
18932 18931 18940 18941 1 180.0000771 15.1670000 2
18933 18932 18931 18940 1 180.0000771 15.1670000 2
18934 18932 18931 18940 1 180.0000771 15.1670000 2
18931 18932 18934 18935 1 180.0000771 15.1670000 2
18931 18932 18934 18936 1 180.0000771 15.1670000 2
18933 18932 18934 18935 1 180.0000771 15.1670000 2
18933 18932 18934 18936 1 180.0000771 15.1670000 2
18932 18934 18936 18937 1 180.0000771 15.1670000 2
18932 18934 18936 18938 1 180.0000771 15.1670000 2
18935 18934 18936 18937 1 180.0000771 15.1670000 2
18935 18934 18936 18938 1 180.0000771 15.1670000 2
18932 18936 18934 18935 4 180.0000771 4.6024000 2
18934 18936 18938 18939 1 180.0000771 15.1670000 2
18934 18936 18938 18940 1 180.0000771 15.1670000 2
18937 18936 18938 18939 1 180.0000771 15.1670000 2
18937 18936 18938 18940 1 180.0000771 15.1670000 2
18934 18938 18936 18937 4 180.0000771 4.6024000 2
18931 18938 18940 18941 4 180.0000771 4.6024000 2
18936 18938 18940 18941 1 180.0000771 15.1670000 2
18939 18938 18940 18941 1 180.0000771 15.1670000 2
18931 18940 18938 18936 1 180.0000771 15.1670000 2
18931 18940 18938 18939 1 180.0000771 15.1670000 2
18936 18940 18938 18939 4 180.0000771 4.6024000 2
18942 18943 18944 18945 1 180.0000771 15.1670000 2
18942 18943 18944 18946 1 180.0000771 15.1670000 2
18945 18943 18944 18946 4 180.0000771 4.6024000 2
18942 18943 18952 18944 4 180.0000771 4.6024000 2
18942 18943 18952 18950 1 180.0000771 15.1670000 2
18942 18943 18952 18953 1 180.0000771 15.1670000 2
18944 18943 18952 18950 1 180.0000771 15.1670000 2
18944 18943 18952 18953 1 180.0000771 15.1670000 2
18945 18944 18943 18952 1 180.0000771 15.1670000 2
18946 18944 18943 18952 1 180.0000771 15.1670000 2
18943 18944 18946 18947 1 180.0000771 15.1670000 2
18943 18944 18946 18948 1 180.0000771 15.1670000 2
18945 18944 18946 18947 1 180.0000771 15.1670000 2
18945 18944 18946 18948 1 180.0000771 15.1670000 2
18944 18946 18948 18949 1 180.0000771 15.1670000 2
18944 18946 18948 18950 1 180.0000771 15.1670000 2
18947 18946 18948 18949 1 180.0000771 15.1670000 2
18947 18946 18948 18950 1 180.0000771 15.1670000 2
18944 18948 18946 18947 4 180.0000771 4.6024000 2
18946 18948 18950 18951 1 180.0000771 15.1670000 2
18946 18948 18950 18952 1 180.0000771 15.1670000 2
18949 18948 18950 18951 1 180.0000771 15.1670000 2
18949 18948 18950 18952 1 180.0000771 15.1670000 2
18946 18950 18948 18949 4 180.0000771 4.6024000 2
18943 18950 18952 18953 4 180.0000771 4.6024000 2
18948 18950 18952 18953 1 180.0000771 15.1670000 2
18951 18950 18952 18953 1 180.0000771 15.1670000 2
18943 18952 18950 18948 1 180.0000771 15.1670000 2
18943 18952 18950 18951 1 180.0000771 15.1670000 2
18948 18952 18950 18951 4 180.0000771 4.6024000 2
18954 18955 18956 18957 1 180.0000771 15.1670000 2
18954 18955 18956 18958 1 180.0000771 15.1670000 2
18957 18955 18956 18958 4 180.0000771 4.6024000 2
18954 18955 18964 18956 4 180.0000771 4.6024000 2
18954 18955 18964 18962 1 180.0000771 15.1670000 2
18954 18955 18964 18965 1 180.0000771 15.1670000 2
18956 18955 18964 18962 1 180.0000771 15.1670000 2
18956 18955 18964 18965 1 180.0000771 15.1670000 2
18957 18956 18955 18964 1 180.0000771 15.1670000 2
18958 18956 18955 18964 1 180.0000771 15.1670000 2
18955 18956 18958 18959 1 180.0000771 15.1670000 2
18955 18956 18958 18960 1 180.0000771 15.1670000 2
18957 18956 18958 18959 1 180.0000771 15.1670000 2
18957 18956 18958 18960 1 180.0000771 15.1670000 2
18956 18958 18960 18961 1 180.0000771 15.1670000 2
18956 18958 18960 18962 1 180.0000771 15.1670000 2
18959 18958 18960 18961 1 180.0000771 15.1670000 2
18959 18958 18960 18962 1 180.0000771 15.1670000 2
18956 18960 18958 18959 4 180.0000771 4.6024000 2
18958 18960 18962 18963 1 180.0000771 15.1670000 2
18958 18960 18962 18964 1 180.0000771 15.1670000 2
18961 18960 18962 18963 1 180.0000771 15.1670000 2
18961 18960 18962 18964 1 180.0000771 15.1670000 2
18958 18962 18960 18961 4 180.0000771 4.6024000 2
18955 18962 18964 18965 4 180.0000771 4.6024000 2
18960 18962 18964 18965 1 180.0000771 15.1670000 2
18963 18962 18964 18965 1 180.0000771 15.1670000 2
18955 18964 18962 18960 1 180.0000771 15.1670000 2
18955 18964 18962 18963 1 180.0000771 15.1670000 2
18960 18964 18962 18963 4 180.0000771 4.6024000 2
18966 18967 18968 18969 1 180.0000771 15.1670000 2
18966 18967 18968 18970 1 180.0000771 15.1670000 2
18969 18967 18968 18970 4 180.0000771 4.6024000 2
18966 18967 18976 18968 4 180.0000771 4.6024000 2
18966 18967 18976 18974 1 180.0000771 15.1670000 2
18966 18967 18976 18977 1 180.0000771 15.1670000 2
18968 18967 18976 18974 1 180.0000771 15.1670000 2
18968 18967 18976 18977 1 180.0000771 15.1670000 2
18969 18968 18967 18976 1 180.0000771 15.1670000 2
18970 18968 18967 18976 1 180.0000771 15.1670000 2
18967 18968 18970 18971 1 180.0000771 15.1670000 2
18967 18968 18970 18972 1 180.0000771 15.1670000 2
18969 18968 18970 18971 1 180.0000771 15.1670000 2
18969 18968 18970 18972 1 180.0000771 15.1670000 2
18968 18970 18972 18973 1 180.0000771 15.1670000 2
18968 18970 18972 18974 1 180.0000771 15.1670000 2
18971 18970 18972 18973 1 180.0000771 15.1670000 2
18971 18970 18972 18974 1 180.0000771 15.1670000 2
18968 18972 18970 18971 4 180.0000771 4.6024000 2
18970 18972 18974 18975 1 180.0000771 15.1670000 2
18970 18972 18974 18976 1 180.0000771 15.1670000 2
18973 18972 18974 18975 1 180.0000771 15.1670000 2
18973 18972 18974 18976 1 180.0000771 15.1670000 2
18970 18974 18972 18973 4 180.0000771 4.6024000 2
18967 18974 18976 18977 4 180.0000771 4.6024000 2
18972 18974 18976 18977 1 180.0000771 15.1670000 2
18975 18974 18976 18977 1 180.0000771 15.1670000 2
18967 18976 18974 18972 1 180.0000771 15.1670000 2
18967 18976 18974 18975 1 180.0000771 15.1670000 2
18972 18976 18974 18975 4 180.0000771 4.6024000 2
18978 18979 18980 18981 1 180.0000771 15.1670000 2
18978 18979 18980 18982 1 180.0000771 15.1670000 2
18981 18979 18980 18982 4 180.0000771 4.6024000 2
18978 18979 18988 18980 4 180.0000771 4.6024000 2
18978 18979 18988 18986 1 180.0000771 15.1670000 2
18978 18979 18988 18989 1 180.0000771 15.1670000 2
18980 18979 18988 18986 1 180.0000771 15.1670000 2
18980 18979 18988 18989 1 180.0000771 15.1670000 2
18981 18980 18979 18988 1 180.0000771 15.1670000 2
18982 18980 18979 18988 1 180.0000771 15.1670000 2
18979 18980 18982 18983 1 180.0000771 15.1670000 2
18979 18980 18982 18984 1 180.0000771 15.1670000 2
18981 18980 18982 18983 1 180.0000771 15.1670000 2
18981 18980 18982 18984 1 180.0000771 15.1670000 2
18980 18982 18984 18985 1 180.0000771 15.1670000 2
18980 18982 18984 18986 1 180.0000771 15.1670000 2
18983 18982 18984 18985 1 180.0000771 15.1670000 2
18983 18982 18984 18986 1 180.0000771 15.1670000 2
18980 18984 18982 18983 4 180.0000771 4.6024000 2
18982 18984 18986 18987 1 180.0000771 15.1670000 2
18982 18984 18986 18988 1 180.0000771 15.1670000 2
18985 18984 18986 18987 1 180.0000771 15.1670000 2
18985 18984 18986 18988 1 180.0000771 15.1670000 2
18982 18986 18984 18985 4 180.0000771 4.6024000 2
18979 18986 18988 18989 4 180.0000771 4.6024000 2
18984 18986 18988 18989 1 180.0000771 15.1670000 2
18987 18986 18988 18989 1 180.0000771 15.1670000 2
18979 18988 18986 18984 1 180.0000771 15.1670000 2
18979 18988 18986 18987 1 180.0000771 15.1670000 2
18984 18988 18986 18987 4 180.0000771 4.6024000 2
18990 18991 18992 18993 1 180.0000771 15.1670000 2
18990 18991 18992 18994 1 180.0000771 15.1670000 2
18993 18991 18992 18994 4 180.0000771 4.6024000 2
18990 18991 19000 18992 4 180.0000771 4.6024000 2
18990 18991 19000 18998 1 180.0000771 15.1670000 2
18990 18991 19000 19001 1 180.0000771 15.1670000 2
18992 18991 19000 18998 1 180.0000771 15.1670000 2
18992 18991 19000 19001 1 180.0000771 15.1670000 2
18993 18992 18991 19000 1 180.0000771 15.1670000 2
18994 18992 18991 19000 1 180.0000771 15.1670000 2
18991 18992 18994 18995 1 180.0000771 15.1670000 2
18991 18992 18994 18996 1 180.0000771 15.1670000 2
18993 18992 18994 18995 1 180.0000771 15.1670000 2
18993 18992 18994 18996 1 180.0000771 15.1670000 2
18992 18994 18996 18997 1 180.0000771 15.1670000 2
18992 18994 18996 18998 1 180.0000771 15.1670000 2
18995 18994 18996 18997 1 180.0000771 15.1670000 2
18995 18994 18996 18998 1 180.0000771 15.1670000 2
18992 18996 18994 18995 4 180.0000771 4.6024000 2
18994 18996 18998 18999 1 180.0000771 15.1670000 2
18994 18996 18998 19000 1 180.0000771 15.1670000 2
18997 18996 18998 18999 1 180.0000771 15.1670000 2
18997 18996 18998 19000 1 180.0000771 15.1670000 2
18994 18998 18996 18997 4 180.0000771 4.6024000 2
18991 18998 19000 19001 4 180.0000771 4.6024000 2
18996 18998 19000 19001 1 180.0000771 15.1670000 2
18999 18998 19000 19001 1 180.0000771 15.1670000 2
18991 19000 18998 18996 1 180.0000771 15.1670000 2
18991 19000 18998 18999 1 180.0000771 15.1670000 2
18996 19000 18998 18999 4 180.0000771 4.6024000 2
19002 19003 19004 19005 1 180.0000771 15.1670000 2
19002 19003 19004 19006 1 180.0000771 15.1670000 2
19005 19003 19004 19006 4 180.0000771 4.6024000 2
19002 19003 19012 19004 4 180.0000771 4.6024000 2
19002 19003 19012 19010 1 180.0000771 15.1670000 2
19002 19003 19012 19013 1 180.0000771 15.1670000 2
19004 19003 19012 19010 1 180.0000771 15.1670000 2
19004 19003 19012 19013 1 180.0000771 15.1670000 2
19005 19004 19003 19012 1 180.0000771 15.1670000 2
19006 19004 19003 19012 1 180.0000771 15.1670000 2
19003 19004 19006 19007 1 180.0000771 15.1670000 2
19003 19004 19006 19008 1 180.0000771 15.1670000 2
19005 19004 19006 19007 1 180.0000771 15.1670000 2
19005 19004 19006 19008 1 180.0000771 15.1670000 2
19004 19006 19008 19009 1 180.0000771 15.1670000 2
19004 19006 19008 19010 1 180.0000771 15.1670000 2
19007 19006 19008 19009 1 180.0000771 15.1670000 2
19007 19006 19008 19010 1 180.0000771 15.1670000 2
19004 19008 19006 19007 4 180.0000771 4.6024000 2
19006 19008 19010 19011 1 180.0000771 15.1670000 2
19006 19008 19010 19012 1 180.0000771 15.1670000 2
19009 19008 19010 19011 1 180.0000771 15.1670000 2
19009 19008 19010 19012 1 180.0000771 15.1670000 2
19006 19010 19008 19009 4 180.0000771 4.6024000 2
19003 19010 19012 19013 4 180.0000771 4.6024000 2
19008 19010 19012 19013 1 180.0000771 15.1670000 2
19011 19010 19012 19013 1 180.0000771 15.1670000 2
19003 19012 19010 19008 1 180.0000771 15.1670000 2
19003 19012 19010 19011 1 180.0000771 15.1670000 2
19008 19012 19010 19011 4 180.0000771 4.6024000 2
19014 19015 19016 19017 1 180.0000771 15.1670000 2
19014 19015 19016 19018 1 180.0000771 15.1670000 2
19017 19015 19016 19018 4 180.0000771 4.6024000 2
19014 19015 19024 19016 4 180.0000771 4.6024000 2
19014 19015 19024 19022 1 180.0000771 15.1670000 2
19014 19015 19024 19025 1 180.0000771 15.1670000 2
19016 19015 19024 19022 1 180.0000771 15.1670000 2
19016 19015 19024 19025 1 180.0000771 15.1670000 2
19017 19016 19015 19024 1 180.0000771 15.1670000 2
19018 19016 19015 19024 1 180.0000771 15.1670000 2
19015 19016 19018 19019 1 180.0000771 15.1670000 2
19015 19016 19018 19020 1 180.0000771 15.1670000 2
19017 19016 19018 19019 1 180.0000771 15.1670000 2
19017 19016 19018 19020 1 180.0000771 15.1670000 2
19016 19018 19020 19021 1 180.0000771 15.1670000 2
19016 19018 19020 19022 1 180.0000771 15.1670000 2
19019 19018 19020 19021 1 180.0000771 15.1670000 2
19019 19018 19020 19022 1 180.0000771 15.1670000 2
19016 19020 19018 19019 4 180.0000771 4.6024000 2
19018 19020 19022 19023 1 180.0000771 15.1670000 2
19018 19020 19022 19024 1 180.0000771 15.1670000 2
19021 19020 19022 19023 1 180.0000771 15.1670000 2
19021 19020 19022 19024 1 180.0000771 15.1670000 2
19018 19022 19020 19021 4 180.0000771 4.6024000 2
19015 19022 19024 19025 4 180.0000771 4.6024000 2
19020 19022 19024 19025 1 180.0000771 15.1670000 2
19023 19022 19024 19025 1 180.0000771 15.1670000 2
19015 19024 19022 19020 1 180.0000771 15.1670000 2
19015 19024 19022 19023 1 180.0000771 15.1670000 2
19020 19024 19022 19023 4 180.0000771 4.6024000 2
19026 19027 19028 19029 1 180.0000771 15.1670000 2
19026 19027 19028 19030 1 180.0000771 15.1670000 2
19029 19027 19028 19030 4 180.0000771 4.6024000 2
19026 19027 19036 19028 4 180.0000771 4.6024000 2
19026 19027 19036 19034 1 180.0000771 15.1670000 2
19026 19027 19036 19037 1 180.0000771 15.1670000 2
19028 19027 19036 19034 1 180.0000771 15.1670000 2
19028 19027 19036 19037 1 180.0000771 15.1670000 2
19029 19028 19027 19036 1 180.0000771 15.1670000 2
19030 19028 19027 19036 1 180.0000771 15.1670000 2
19027 19028 19030 19031 1 180.0000771 15.1670000 2
19027 19028 19030 19032 1 180.0000771 15.1670000 2
19029 19028 19030 19031 1 180.0000771 15.1670000 2
19029 19028 19030 19032 1 180.0000771 15.1670000 2
19028 19030 19032 19033 1 180.0000771 15.1670000 2
19028 19030 19032 19034 1 180.0000771 15.1670000 2
19031 19030 19032 19033 1 180.0000771 15.1670000 2
19031 19030 19032 19034 1 180.0000771 15.1670000 2
19028 19032 19030 19031 4 180.0000771 4.6024000 2
19030 19032 19034 19035 1 180.0000771 15.1670000 2
19030 19032 19034 19036 1 180.0000771 15.1670000 2
19033 19032 19034 19035 1 180.0000771 15.1670000 2
19033 19032 19034 19036 1 180.0000771 15.1670000 2
19030 19034 19032 19033 4 180.0000771 4.6024000 2
19027 19034 19036 19037 4 180.0000771 4.6024000 2
19032 19034 19036 19037 1 180.0000771 15.1670000 2
19035 19034 19036 19037 1 180.0000771 15.1670000 2
19027 19036 19034 19032 1 180.0000771 15.1670000 2
19027 19036 19034 19035 1 180.0000771 15.1670000 2
19032 19036 19034 19035 4 180.0000771 4.6024000 2
19038 19039 19040 19041 1 180.0000771 15.1670000 2
19038 19039 19040 19042 1 180.0000771 15.1670000 2
19041 19039 19040 19042 4 180.0000771 4.6024000 2
19038 19039 19048 19040 4 180.0000771 4.6024000 2
19038 19039 19048 19046 1 180.0000771 15.1670000 2
19038 19039 19048 19049 1 180.0000771 15.1670000 2
19040 19039 19048 19046 1 180.0000771 15.1670000 2
19040 19039 19048 19049 1 180.0000771 15.1670000 2
19041 19040 19039 19048 1 180.0000771 15.1670000 2
19042 19040 19039 19048 1 180.0000771 15.1670000 2
19039 19040 19042 19043 1 180.0000771 15.1670000 2
19039 19040 19042 19044 1 180.0000771 15.1670000 2
19041 19040 19042 19043 1 180.0000771 15.1670000 2
19041 19040 19042 19044 1 180.0000771 15.1670000 2
19040 19042 19044 19045 1 180.0000771 15.1670000 2
19040 19042 19044 19046 1 180.0000771 15.1670000 2
19043 19042 19044 19045 1 180.0000771 15.1670000 2
19043 19042 19044 19046 1 180.0000771 15.1670000 2
19040 19044 19042 19043 4 180.0000771 4.6024000 2
19042 19044 19046 19047 1 180.0000771 15.1670000 2
19042 19044 19046 19048 1 180.0000771 15.1670000 2
19045 19044 19046 19047 1 180.0000771 15.1670000 2
19045 19044 19046 19048 1 180.0000771 15.1670000 2
19042 19046 19044 19045 4 180.0000771 4.6024000 2
19039 19046 19048 19049 4 180.0000771 4.6024000 2
19044 19046 19048 19049 1 180.0000771 15.1670000 2
19047 19046 19048 19049 1 180.0000771 15.1670000 2
19039 19048 19046 19044 1 180.0000771 15.1670000 2
19039 19048 19046 19047 1 180.0000771 15.1670000 2
19044 19048 19046 19047 4 180.0000771 4.6024000 2
19050 19051 19052 19053 1 180.0000771 15.1670000 2
19050 19051 19052 19054 1 180.0000771 15.1670000 2
19053 19051 19052 19054 4 180.0000771 4.6024000 2
19050 19051 19060 19052 4 180.0000771 4.6024000 2
19050 19051 19060 19058 1 180.0000771 15.1670000 2
19050 19051 19060 19061 1 180.0000771 15.1670000 2
19052 19051 19060 19058 1 180.0000771 15.1670000 2
19052 19051 19060 19061 1 180.0000771 15.1670000 2
19053 19052 19051 19060 1 180.0000771 15.1670000 2
19054 19052 19051 19060 1 180.0000771 15.1670000 2
19051 19052 19054 19055 1 180.0000771 15.1670000 2
19051 19052 19054 19056 1 180.0000771 15.1670000 2
19053 19052 19054 19055 1 180.0000771 15.1670000 2
19053 19052 19054 19056 1 180.0000771 15.1670000 2
19052 19054 19056 19057 1 180.0000771 15.1670000 2
19052 19054 19056 19058 1 180.0000771 15.1670000 2
19055 19054 19056 19057 1 180.0000771 15.1670000 2
19055 19054 19056 19058 1 180.0000771 15.1670000 2
19052 19056 19054 19055 4 180.0000771 4.6024000 2
19054 19056 19058 19059 1 180.0000771 15.1670000 2
19054 19056 19058 19060 1 180.0000771 15.1670000 2
19057 19056 19058 19059 1 180.0000771 15.1670000 2
19057 19056 19058 19060 1 180.0000771 15.1670000 2
19054 19058 19056 19057 4 180.0000771 4.6024000 2
19051 19058 19060 19061 4 180.0000771 4.6024000 2
19056 19058 19060 19061 1 180.0000771 15.1670000 2
19059 19058 19060 19061 1 180.0000771 15.1670000 2
19051 19060 19058 19056 1 180.0000771 15.1670000 2
19051 19060 19058 19059 1 180.0000771 15.1670000 2
19056 19060 19058 19059 4 180.0000771 4.6024000 2
19062 19063 19064 19065 1 180.0000771 15.1670000 2
19062 19063 19064 19066 1 180.0000771 15.1670000 2
19065 19063 19064 19066 4 180.0000771 4.6024000 2
19062 19063 19072 19064 4 180.0000771 4.6024000 2
19062 19063 19072 19070 1 180.0000771 15.1670000 2
19062 19063 19072 19073 1 180.0000771 15.1670000 2
19064 19063 19072 19070 1 180.0000771 15.1670000 2
19064 19063 19072 19073 1 180.0000771 15.1670000 2
19065 19064 19063 19072 1 180.0000771 15.1670000 2
19066 19064 19063 19072 1 180.0000771 15.1670000 2
19063 19064 19066 19067 1 180.0000771 15.1670000 2
19063 19064 19066 19068 1 180.0000771 15.1670000 2
19065 19064 19066 19067 1 180.0000771 15.1670000 2
19065 19064 19066 19068 1 180.0000771 15.1670000 2
19064 19066 19068 19069 1 180.0000771 15.1670000 2
19064 19066 19068 19070 1 180.0000771 15.1670000 2
19067 19066 19068 19069 1 180.0000771 15.1670000 2
19067 19066 19068 19070 1 180.0000771 15.1670000 2
19064 19068 19066 19067 4 180.0000771 4.6024000 2
19066 19068 19070 19071 1 180.0000771 15.1670000 2
19066 19068 19070 19072 1 180.0000771 15.1670000 2
19069 19068 19070 19071 1 180.0000771 15.1670000 2
19069 19068 19070 19072 1 180.0000771 15.1670000 2
19066 19070 19068 19069 4 180.0000771 4.6024000 2
19063 19070 19072 19073 4 180.0000771 4.6024000 2
19068 19070 19072 19073 1 180.0000771 15.1670000 2
19071 19070 19072 19073 1 180.0000771 15.1670000 2
19063 19072 19070 19068 1 180.0000771 15.1670000 2
19063 19072 19070 19071 1 180.0000771 15.1670000 2
19068 19072 19070 19071 4 180.0000771 4.6024000 2
19074 19075 19076 19077 1 180.0000771 15.1670000 2
19074 19075 19076 19078 1 180.0000771 15.1670000 2
19077 19075 19076 19078 4 180.0000771 4.6024000 2
19074 19075 19084 19076 4 180.0000771 4.6024000 2
19074 19075 19084 19082 1 180.0000771 15.1670000 2
19074 19075 19084 19085 1 180.0000771 15.1670000 2
19076 19075 19084 19082 1 180.0000771 15.1670000 2
19076 19075 19084 19085 1 180.0000771 15.1670000 2
19077 19076 19075 19084 1 180.0000771 15.1670000 2
19078 19076 19075 19084 1 180.0000771 15.1670000 2
19075 19076 19078 19079 1 180.0000771 15.1670000 2
19075 19076 19078 19080 1 180.0000771 15.1670000 2
19077 19076 19078 19079 1 180.0000771 15.1670000 2
19077 19076 19078 19080 1 180.0000771 15.1670000 2
19076 19078 19080 19081 1 180.0000771 15.1670000 2
19076 19078 19080 19082 1 180.0000771 15.1670000 2
19079 19078 19080 19081 1 180.0000771 15.1670000 2
19079 19078 19080 19082 1 180.0000771 15.1670000 2
19076 19080 19078 19079 4 180.0000771 4.6024000 2
19078 19080 19082 19083 1 180.0000771 15.1670000 2
19078 19080 19082 19084 1 180.0000771 15.1670000 2
19081 19080 19082 19083 1 180.0000771 15.1670000 2
19081 19080 19082 19084 1 180.0000771 15.1670000 2
19078 19082 19080 19081 4 180.0000771 4.6024000 2
19075 19082 19084 19085 4 180.0000771 4.6024000 2
19080 19082 19084 19085 1 180.0000771 15.1670000 2
19083 19082 19084 19085 1 180.0000771 15.1670000 2
19075 19084 19082 19080 1 180.0000771 15.1670000 2
19075 19084 19082 19083 1 180.0000771 15.1670000 2
19080 19084 19082 19083 4 180.0000771 4.6024000 2
19086 19087 19088 19089 1 180.0000771 15.1670000 2
19086 19087 19088 19090 1 180.0000771 15.1670000 2
19089 19087 19088 19090 4 180.0000771 4.6024000 2
19086 19087 19096 19088 4 180.0000771 4.6024000 2
19086 19087 19096 19094 1 180.0000771 15.1670000 2
19086 19087 19096 19097 1 180.0000771 15.1670000 2
19088 19087 19096 19094 1 180.0000771 15.1670000 2
19088 19087 19096 19097 1 180.0000771 15.1670000 2
19089 19088 19087 19096 1 180.0000771 15.1670000 2
19090 19088 19087 19096 1 180.0000771 15.1670000 2
19087 19088 19090 19091 1 180.0000771 15.1670000 2
19087 19088 19090 19092 1 180.0000771 15.1670000 2
19089 19088 19090 19091 1 180.0000771 15.1670000 2
19089 19088 19090 19092 1 180.0000771 15.1670000 2
19088 19090 19092 19093 1 180.0000771 15.1670000 2
19088 19090 19092 19094 1 180.0000771 15.1670000 2
19091 19090 19092 19093 1 180.0000771 15.1670000 2
19091 19090 19092 19094 1 180.0000771 15.1670000 2
19088 19092 19090 19091 4 180.0000771 4.6024000 2
19090 19092 19094 19095 1 180.0000771 15.1670000 2
19090 19092 19094 19096 1 180.0000771 15.1670000 2
19093 19092 19094 19095 1 180.0000771 15.1670000 2
19093 19092 19094 19096 1 180.0000771 15.1670000 2
19090 19094 19092 19093 4 180.0000771 4.6024000 2
19087 19094 19096 19097 4 180.0000771 4.6024000 2
19092 19094 19096 19097 1 180.0000771 15.1670000 2
19095 19094 19096 19097 1 180.0000771 15.1670000 2
19087 19096 19094 19092 1 180.0000771 15.1670000 2
19087 19096 19094 19095 1 180.0000771 15.1670000 2
19092 19096 19094 19095 4 180.0000771 4.6024000 2
19098 19099 19100 19101 1 180.0000771 15.1670000 2
19098 19099 19100 19102 1 180.0000771 15.1670000 2
19101 19099 19100 19102 4 180.0000771 4.6024000 2
19098 19099 19108 19100 4 180.0000771 4.6024000 2
19098 19099 19108 19106 1 180.0000771 15.1670000 2
19098 19099 19108 19109 1 180.0000771 15.1670000 2
19100 19099 19108 19106 1 180.0000771 15.1670000 2
19100 19099 19108 19109 1 180.0000771 15.1670000 2
19101 19100 19099 19108 1 180.0000771 15.1670000 2
19102 19100 19099 19108 1 180.0000771 15.1670000 2
19099 19100 19102 19103 1 180.0000771 15.1670000 2
19099 19100 19102 19104 1 180.0000771 15.1670000 2
19101 19100 19102 19103 1 180.0000771 15.1670000 2
19101 19100 19102 19104 1 180.0000771 15.1670000 2
19100 19102 19104 19105 1 180.0000771 15.1670000 2
19100 19102 19104 19106 1 180.0000771 15.1670000 2
19103 19102 19104 19105 1 180.0000771 15.1670000 2
19103 19102 19104 19106 1 180.0000771 15.1670000 2
19100 19104 19102 19103 4 180.0000771 4.6024000 2
19102 19104 19106 19107 1 180.0000771 15.1670000 2
19102 19104 19106 19108 1 180.0000771 15.1670000 2
19105 19104 19106 19107 1 180.0000771 15.1670000 2
19105 19104 19106 19108 1 180.0000771 15.1670000 2
19102 19106 19104 19105 4 180.0000771 4.6024000 2
19099 19106 19108 19109 4 180.0000771 4.6024000 2
19104 19106 19108 19109 1 180.0000771 15.1670000 2
19107 19106 19108 19109 1 180.0000771 15.1670000 2
19099 19108 19106 19104 1 180.0000771 15.1670000 2
19099 19108 19106 19107 1 180.0000771 15.1670000 2
19104 19108 19106 19107 4 180.0000771 4.6024000 2
19110 19111 19112 19113 1 180.0000771 15.1670000 2
19110 19111 19112 19114 1 180.0000771 15.1670000 2
19113 19111 19112 19114 4 180.0000771 4.6024000 2
19110 19111 19120 19112 4 180.0000771 4.6024000 2
19110 19111 19120 19118 1 180.0000771 15.1670000 2
19110 19111 19120 19121 1 180.0000771 15.1670000 2
19112 19111 19120 19118 1 180.0000771 15.1670000 2
19112 19111 19120 19121 1 180.0000771 15.1670000 2
19113 19112 19111 19120 1 180.0000771 15.1670000 2
19114 19112 19111 19120 1 180.0000771 15.1670000 2
19111 19112 19114 19115 1 180.0000771 15.1670000 2
19111 19112 19114 19116 1 180.0000771 15.1670000 2
19113 19112 19114 19115 1 180.0000771 15.1670000 2
19113 19112 19114 19116 1 180.0000771 15.1670000 2
19112 19114 19116 19117 1 180.0000771 15.1670000 2
19112 19114 19116 19118 1 180.0000771 15.1670000 2
19115 19114 19116 19117 1 180.0000771 15.1670000 2
19115 19114 19116 19118 1 180.0000771 15.1670000 2
19112 19116 19114 19115 4 180.0000771 4.6024000 2
19114 19116 19118 19119 1 180.0000771 15.1670000 2
19114 19116 19118 19120 1 180.0000771 15.1670000 2
19117 19116 19118 19119 1 180.0000771 15.1670000 2
19117 19116 19118 19120 1 180.0000771 15.1670000 2
19114 19118 19116 19117 4 180.0000771 4.6024000 2
19111 19118 19120 19121 4 180.0000771 4.6024000 2
19116 19118 19120 19121 1 180.0000771 15.1670000 2
19119 19118 19120 19121 1 180.0000771 15.1670000 2
19111 19120 19118 19116 1 180.0000771 15.1670000 2
19111 19120 19118 19119 1 180.0000771 15.1670000 2
19116 19120 19118 19119 4 180.0000771 4.6024000 2
19122 19123 19124 19125 1 180.0000771 15.1670000 2
19122 19123 19124 19126 1 180.0000771 15.1670000 2
19125 19123 19124 19126 4 180.0000771 4.6024000 2
19122 19123 19132 19124 4 180.0000771 4.6024000 2
19122 19123 19132 19130 1 180.0000771 15.1670000 2
19122 19123 19132 19133 1 180.0000771 15.1670000 2
19124 19123 19132 19130 1 180.0000771 15.1670000 2
19124 19123 19132 19133 1 180.0000771 15.1670000 2
19125 19124 19123 19132 1 180.0000771 15.1670000 2
19126 19124 19123 19132 1 180.0000771 15.1670000 2
19123 19124 19126 19127 1 180.0000771 15.1670000 2
19123 19124 19126 19128 1 180.0000771 15.1670000 2
19125 19124 19126 19127 1 180.0000771 15.1670000 2
19125 19124 19126 19128 1 180.0000771 15.1670000 2
19124 19126 19128 19129 1 180.0000771 15.1670000 2
19124 19126 19128 19130 1 180.0000771 15.1670000 2
19127 19126 19128 19129 1 180.0000771 15.1670000 2
19127 19126 19128 19130 1 180.0000771 15.1670000 2
19124 19128 19126 19127 4 180.0000771 4.6024000 2
19126 19128 19130 19131 1 180.0000771 15.1670000 2
19126 19128 19130 19132 1 180.0000771 15.1670000 2
19129 19128 19130 19131 1 180.0000771 15.1670000 2
19129 19128 19130 19132 1 180.0000771 15.1670000 2
19126 19130 19128 19129 4 180.0000771 4.6024000 2
19123 19130 19132 19133 4 180.0000771 4.6024000 2
19128 19130 19132 19133 1 180.0000771 15.1670000 2
19131 19130 19132 19133 1 180.0000771 15.1670000 2
19123 19132 19130 19128 1 180.0000771 15.1670000 2
19123 19132 19130 19131 1 180.0000771 15.1670000 2
19128 19132 19130 19131 4 180.0000771 4.6024000 2
19134 19135 19136 19137 1 180.0000771 15.1670000 2
19134 19135 19136 19138 1 180.0000771 15.1670000 2
19137 19135 19136 19138 4 180.0000771 4.6024000 2
19134 19135 19144 19136 4 180.0000771 4.6024000 2
19134 19135 19144 19142 1 180.0000771 15.1670000 2
19134 19135 19144 19145 1 180.0000771 15.1670000 2
19136 19135 19144 19142 1 180.0000771 15.1670000 2
19136 19135 19144 19145 1 180.0000771 15.1670000 2
19137 19136 19135 19144 1 180.0000771 15.1670000 2
19138 19136 19135 19144 1 180.0000771 15.1670000 2
19135 19136 19138 19139 1 180.0000771 15.1670000 2
19135 19136 19138 19140 1 180.0000771 15.1670000 2
19137 19136 19138 19139 1 180.0000771 15.1670000 2
19137 19136 19138 19140 1 180.0000771 15.1670000 2
19136 19138 19140 19141 1 180.0000771 15.1670000 2
19136 19138 19140 19142 1 180.0000771 15.1670000 2
19139 19138 19140 19141 1 180.0000771 15.1670000 2
19139 19138 19140 19142 1 180.0000771 15.1670000 2
19136 19140 19138 19139 4 180.0000771 4.6024000 2
19138 19140 19142 19143 1 180.0000771 15.1670000 2
19138 19140 19142 19144 1 180.0000771 15.1670000 2
19141 19140 19142 19143 1 180.0000771 15.1670000 2
19141 19140 19142 19144 1 180.0000771 15.1670000 2
19138 19142 19140 19141 4 180.0000771 4.6024000 2
19135 19142 19144 19145 4 180.0000771 4.6024000 2
19140 19142 19144 19145 1 180.0000771 15.1670000 2
19143 19142 19144 19145 1 180.0000771 15.1670000 2
19135 19144 19142 19140 1 180.0000771 15.1670000 2
19135 19144 19142 19143 1 180.0000771 15.1670000 2
19140 19144 19142 19143 4 180.0000771 4.6024000 2
19146 19147 19148 19149 1 180.0000771 15.1670000 2
19146 19147 19148 19150 1 180.0000771 15.1670000 2
19149 19147 19148 19150 4 180.0000771 4.6024000 2
19146 19147 19156 19148 4 180.0000771 4.6024000 2
19146 19147 19156 19154 1 180.0000771 15.1670000 2
19146 19147 19156 19157 1 180.0000771 15.1670000 2
19148 19147 19156 19154 1 180.0000771 15.1670000 2
19148 19147 19156 19157 1 180.0000771 15.1670000 2
19149 19148 19147 19156 1 180.0000771 15.1670000 2
19150 19148 19147 19156 1 180.0000771 15.1670000 2
19147 19148 19150 19151 1 180.0000771 15.1670000 2
19147 19148 19150 19152 1 180.0000771 15.1670000 2
19149 19148 19150 19151 1 180.0000771 15.1670000 2
19149 19148 19150 19152 1 180.0000771 15.1670000 2
19148 19150 19152 19153 1 180.0000771 15.1670000 2
19148 19150 19152 19154 1 180.0000771 15.1670000 2
19151 19150 19152 19153 1 180.0000771 15.1670000 2
19151 19150 19152 19154 1 180.0000771 15.1670000 2
19148 19152 19150 19151 4 180.0000771 4.6024000 2
19150 19152 19154 19155 1 180.0000771 15.1670000 2
19150 19152 19154 19156 1 180.0000771 15.1670000 2
19153 19152 19154 19155 1 180.0000771 15.1670000 2
19153 19152 19154 19156 1 180.0000771 15.1670000 2
19150 19154 19152 19153 4 180.0000771 4.6024000 2
19147 19154 19156 19157 4 180.0000771 4.6024000 2
19152 19154 19156 19157 1 180.0000771 15.1670000 2
19155 19154 19156 19157 1 180.0000771 15.1670000 2
19147 19156 19154 19152 1 180.0000771 15.1670000 2
19147 19156 19154 19155 1 180.0000771 15.1670000 2
19152 19156 19154 19155 4 180.0000771 4.6024000 2
19158 19159 19160 19161 1 180.0000771 15.1670000 2
19158 19159 19160 19162 1 180.0000771 15.1670000 2
19161 19159 19160 19162 4 180.0000771 4.6024000 2
19158 19159 19168 19160 4 180.0000771 4.6024000 2
19158 19159 19168 19166 1 180.0000771 15.1670000 2
19158 19159 19168 19169 1 180.0000771 15.1670000 2
19160 19159 19168 19166 1 180.0000771 15.1670000 2
19160 19159 19168 19169 1 180.0000771 15.1670000 2
19161 19160 19159 19168 1 180.0000771 15.1670000 2
19162 19160 19159 19168 1 180.0000771 15.1670000 2
19159 19160 19162 19163 1 180.0000771 15.1670000 2
19159 19160 19162 19164 1 180.0000771 15.1670000 2
19161 19160 19162 19163 1 180.0000771 15.1670000 2
19161 19160 19162 19164 1 180.0000771 15.1670000 2
19160 19162 19164 19165 1 180.0000771 15.1670000 2
19160 19162 19164 19166 1 180.0000771 15.1670000 2
19163 19162 19164 19165 1 180.0000771 15.1670000 2
19163 19162 19164 19166 1 180.0000771 15.1670000 2
19160 19164 19162 19163 4 180.0000771 4.6024000 2
19162 19164 19166 19167 1 180.0000771 15.1670000 2
19162 19164 19166 19168 1 180.0000771 15.1670000 2
19165 19164 19166 19167 1 180.0000771 15.1670000 2
19165 19164 19166 19168 1 180.0000771 15.1670000 2
19162 19166 19164 19165 4 180.0000771 4.6024000 2
19159 19166 19168 19169 4 180.0000771 4.6024000 2
19164 19166 19168 19169 1 180.0000771 15.1670000 2
19167 19166 19168 19169 1 180.0000771 15.1670000 2
19159 19168 19166 19164 1 180.0000771 15.1670000 2
19159 19168 19166 19167 1 180.0000771 15.1670000 2
19164 19168 19166 19167 4 180.0000771 4.6024000 2
19170 19171 19172 19173 1 180.0000771 15.1670000 2
19170 19171 19172 19174 1 180.0000771 15.1670000 2
19173 19171 19172 19174 4 180.0000771 4.6024000 2
19170 19171 19180 19172 4 180.0000771 4.6024000 2
19170 19171 19180 19178 1 180.0000771 15.1670000 2
19170 19171 19180 19181 1 180.0000771 15.1670000 2
19172 19171 19180 19178 1 180.0000771 15.1670000 2
19172 19171 19180 19181 1 180.0000771 15.1670000 2
19173 19172 19171 19180 1 180.0000771 15.1670000 2
19174 19172 19171 19180 1 180.0000771 15.1670000 2
19171 19172 19174 19175 1 180.0000771 15.1670000 2
19171 19172 19174 19176 1 180.0000771 15.1670000 2
19173 19172 19174 19175 1 180.0000771 15.1670000 2
19173 19172 19174 19176 1 180.0000771 15.1670000 2
19172 19174 19176 19177 1 180.0000771 15.1670000 2
19172 19174 19176 19178 1 180.0000771 15.1670000 2
19175 19174 19176 19177 1 180.0000771 15.1670000 2
19175 19174 19176 19178 1 180.0000771 15.1670000 2
19172 19176 19174 19175 4 180.0000771 4.6024000 2
19174 19176 19178 19179 1 180.0000771 15.1670000 2
19174 19176 19178 19180 1 180.0000771 15.1670000 2
19177 19176 19178 19179 1 180.0000771 15.1670000 2
19177 19176 19178 19180 1 180.0000771 15.1670000 2
19174 19178 19176 19177 4 180.0000771 4.6024000 2
19171 19178 19180 19181 4 180.0000771 4.6024000 2
19176 19178 19180 19181 1 180.0000771 15.1670000 2
19179 19178 19180 19181 1 180.0000771 15.1670000 2
19171 19180 19178 19176 1 180.0000771 15.1670000 2
19171 19180 19178 19179 1 180.0000771 15.1670000 2
19176 19180 19178 19179 4 180.0000771 4.6024000 2
19182 19183 19184 19185 1 180.0000771 15.1670000 2
19182 19183 19184 19186 1 180.0000771 15.1670000 2
19185 19183 19184 19186 4 180.0000771 4.6024000 2
19182 19183 19192 19184 4 180.0000771 4.6024000 2
19182 19183 19192 19190 1 180.0000771 15.1670000 2
19182 19183 19192 19193 1 180.0000771 15.1670000 2
19184 19183 19192 19190 1 180.0000771 15.1670000 2
19184 19183 19192 19193 1 180.0000771 15.1670000 2
19185 19184 19183 19192 1 180.0000771 15.1670000 2
19186 19184 19183 19192 1 180.0000771 15.1670000 2
19183 19184 19186 19187 1 180.0000771 15.1670000 2
19183 19184 19186 19188 1 180.0000771 15.1670000 2
19185 19184 19186 19187 1 180.0000771 15.1670000 2
19185 19184 19186 19188 1 180.0000771 15.1670000 2
19184 19186 19188 19189 1 180.0000771 15.1670000 2
19184 19186 19188 19190 1 180.0000771 15.1670000 2
19187 19186 19188 19189 1 180.0000771 15.1670000 2
19187 19186 19188 19190 1 180.0000771 15.1670000 2
19184 19188 19186 19187 4 180.0000771 4.6024000 2
19186 19188 19190 19191 1 180.0000771 15.1670000 2
19186 19188 19190 19192 1 180.0000771 15.1670000 2
19189 19188 19190 19191 1 180.0000771 15.1670000 2
19189 19188 19190 19192 1 180.0000771 15.1670000 2
19186 19190 19188 19189 4 180.0000771 4.6024000 2
19183 19190 19192 19193 4 180.0000771 4.6024000 2
19188 19190 19192 19193 1 180.0000771 15.1670000 2
19191 19190 19192 19193 1 180.0000771 15.1670000 2
19183 19192 19190 19188 1 180.0000771 15.1670000 2
19183 19192 19190 19191 1 180.0000771 15.1670000 2
19188 19192 19190 19191 4 180.0000771 4.6024000 2
19194 19195 19196 19197 1 180.0000771 15.1670000 2
19194 19195 19196 19198 1 180.0000771 15.1670000 2
19197 19195 19196 19198 4 180.0000771 4.6024000 2
19194 19195 19204 19196 4 180.0000771 4.6024000 2
19194 19195 19204 19202 1 180.0000771 15.1670000 2
19194 19195 19204 19205 1 180.0000771 15.1670000 2
19196 19195 19204 19202 1 180.0000771 15.1670000 2
19196 19195 19204 19205 1 180.0000771 15.1670000 2
19197 19196 19195 19204 1 180.0000771 15.1670000 2
19198 19196 19195 19204 1 180.0000771 15.1670000 2
19195 19196 19198 19199 1 180.0000771 15.1670000 2
19195 19196 19198 19200 1 180.0000771 15.1670000 2
19197 19196 19198 19199 1 180.0000771 15.1670000 2
19197 19196 19198 19200 1 180.0000771 15.1670000 2
19196 19198 19200 19201 1 180.0000771 15.1670000 2
19196 19198 19200 19202 1 180.0000771 15.1670000 2
19199 19198 19200 19201 1 180.0000771 15.1670000 2
19199 19198 19200 19202 1 180.0000771 15.1670000 2
19196 19200 19198 19199 4 180.0000771 4.6024000 2
19198 19200 19202 19203 1 180.0000771 15.1670000 2
19198 19200 19202 19204 1 180.0000771 15.1670000 2
19201 19200 19202 19203 1 180.0000771 15.1670000 2
19201 19200 19202 19204 1 180.0000771 15.1670000 2
19198 19202 19200 19201 4 180.0000771 4.6024000 2
19195 19202 19204 19205 4 180.0000771 4.6024000 2
19200 19202 19204 19205 1 180.0000771 15.1670000 2
19203 19202 19204 19205 1 180.0000771 15.1670000 2
19195 19204 19202 19200 1 180.0000771 15.1670000 2
19195 19204 19202 19203 1 180.0000771 15.1670000 2
19200 19204 19202 19203 4 180.0000771 4.6024000 2
19206 19207 19208 19209 1 180.0000771 15.1670000 2
19206 19207 19208 19210 1 180.0000771 15.1670000 2
19209 19207 19208 19210 4 180.0000771 4.6024000 2
19206 19207 19216 19208 4 180.0000771 4.6024000 2
19206 19207 19216 19214 1 180.0000771 15.1670000 2
19206 19207 19216 19217 1 180.0000771 15.1670000 2
19208 19207 19216 19214 1 180.0000771 15.1670000 2
19208 19207 19216 19217 1 180.0000771 15.1670000 2
19209 19208 19207 19216 1 180.0000771 15.1670000 2
19210 19208 19207 19216 1 180.0000771 15.1670000 2
19207 19208 19210 19211 1 180.0000771 15.1670000 2
19207 19208 19210 19212 1 180.0000771 15.1670000 2
19209 19208 19210 19211 1 180.0000771 15.1670000 2
19209 19208 19210 19212 1 180.0000771 15.1670000 2
19208 19210 19212 19213 1 180.0000771 15.1670000 2
19208 19210 19212 19214 1 180.0000771 15.1670000 2
19211 19210 19212 19213 1 180.0000771 15.1670000 2
19211 19210 19212 19214 1 180.0000771 15.1670000 2
19208 19212 19210 19211 4 180.0000771 4.6024000 2
19210 19212 19214 19215 1 180.0000771 15.1670000 2
19210 19212 19214 19216 1 180.0000771 15.1670000 2
19213 19212 19214 19215 1 180.0000771 15.1670000 2
19213 19212 19214 19216 1 180.0000771 15.1670000 2
19210 19214 19212 19213 4 180.0000771 4.6024000 2
19207 19214 19216 19217 4 180.0000771 4.6024000 2
19212 19214 19216 19217 1 180.0000771 15.1670000 2
19215 19214 19216 19217 1 180.0000771 15.1670000 2
19207 19216 19214 19212 1 180.0000771 15.1670000 2
19207 19216 19214 19215 1 180.0000771 15.1670000 2
19212 19216 19214 19215 4 180.0000771 4.6024000 2
19218 19219 19220 19221 1 180.0000771 15.1670000 2
19218 19219 19220 19222 1 180.0000771 15.1670000 2
19221 19219 19220 19222 4 180.0000771 4.6024000 2
19218 19219 19228 19220 4 180.0000771 4.6024000 2
19218 19219 19228 19226 1 180.0000771 15.1670000 2
19218 19219 19228 19229 1 180.0000771 15.1670000 2
19220 19219 19228 19226 1 180.0000771 15.1670000 2
19220 19219 19228 19229 1 180.0000771 15.1670000 2
19221 19220 19219 19228 1 180.0000771 15.1670000 2
19222 19220 19219 19228 1 180.0000771 15.1670000 2
19219 19220 19222 19223 1 180.0000771 15.1670000 2
19219 19220 19222 19224 1 180.0000771 15.1670000 2
19221 19220 19222 19223 1 180.0000771 15.1670000 2
19221 19220 19222 19224 1 180.0000771 15.1670000 2
19220 19222 19224 19225 1 180.0000771 15.1670000 2
19220 19222 19224 19226 1 180.0000771 15.1670000 2
19223 19222 19224 19225 1 180.0000771 15.1670000 2
19223 19222 19224 19226 1 180.0000771 15.1670000 2
19220 19224 19222 19223 4 180.0000771 4.6024000 2
19222 19224 19226 19227 1 180.0000771 15.1670000 2
19222 19224 19226 19228 1 180.0000771 15.1670000 2
19225 19224 19226 19227 1 180.0000771 15.1670000 2
19225 19224 19226 19228 1 180.0000771 15.1670000 2
19222 19226 19224 19225 4 180.0000771 4.6024000 2
19219 19226 19228 19229 4 180.0000771 4.6024000 2
19224 19226 19228 19229 1 180.0000771 15.1670000 2
19227 19226 19228 19229 1 180.0000771 15.1670000 2
19219 19228 19226 19224 1 180.0000771 15.1670000 2
19219 19228 19226 19227 1 180.0000771 15.1670000 2
19224 19228 19226 19227 4 180.0000771 4.6024000 2
19230 19231 19232 19233 1 180.0000771 15.1670000 2
19230 19231 19232 19234 1 180.0000771 15.1670000 2
19233 19231 19232 19234 4 180.0000771 4.6024000 2
19230 19231 19240 19232 4 180.0000771 4.6024000 2
19230 19231 19240 19238 1 180.0000771 15.1670000 2
19230 19231 19240 19241 1 180.0000771 15.1670000 2
19232 19231 19240 19238 1 180.0000771 15.1670000 2
19232 19231 19240 19241 1 180.0000771 15.1670000 2
19233 19232 19231 19240 1 180.0000771 15.1670000 2
19234 19232 19231 19240 1 180.0000771 15.1670000 2
19231 19232 19234 19235 1 180.0000771 15.1670000 2
19231 19232 19234 19236 1 180.0000771 15.1670000 2
19233 19232 19234 19235 1 180.0000771 15.1670000 2
19233 19232 19234 19236 1 180.0000771 15.1670000 2
19232 19234 19236 19237 1 180.0000771 15.1670000 2
19232 19234 19236 19238 1 180.0000771 15.1670000 2
19235 19234 19236 19237 1 180.0000771 15.1670000 2
19235 19234 19236 19238 1 180.0000771 15.1670000 2
19232 19236 19234 19235 4 180.0000771 4.6024000 2
19234 19236 19238 19239 1 180.0000771 15.1670000 2
19234 19236 19238 19240 1 180.0000771 15.1670000 2
19237 19236 19238 19239 1 180.0000771 15.1670000 2
19237 19236 19238 19240 1 180.0000771 15.1670000 2
19234 19238 19236 19237 4 180.0000771 4.6024000 2
19231 19238 19240 19241 4 180.0000771 4.6024000 2
19236 19238 19240 19241 1 180.0000771 15.1670000 2
19239 19238 19240 19241 1 180.0000771 15.1670000 2
19231 19240 19238 19236 1 180.0000771 15.1670000 2
19231 19240 19238 19239 1 180.0000771 15.1670000 2
19236 19240 19238 19239 4 180.0000771 4.6024000 2
19242 19243 19244 19245 1 180.0000771 15.1670000 2
19242 19243 19244 19246 1 180.0000771 15.1670000 2
19245 19243 19244 19246 4 180.0000771 4.6024000 2
19242 19243 19252 19244 4 180.0000771 4.6024000 2
19242 19243 19252 19250 1 180.0000771 15.1670000 2
19242 19243 19252 19253 1 180.0000771 15.1670000 2
19244 19243 19252 19250 1 180.0000771 15.1670000 2
19244 19243 19252 19253 1 180.0000771 15.1670000 2
19245 19244 19243 19252 1 180.0000771 15.1670000 2
19246 19244 19243 19252 1 180.0000771 15.1670000 2
19243 19244 19246 19247 1 180.0000771 15.1670000 2
19243 19244 19246 19248 1 180.0000771 15.1670000 2
19245 19244 19246 19247 1 180.0000771 15.1670000 2
19245 19244 19246 19248 1 180.0000771 15.1670000 2
19244 19246 19248 19249 1 180.0000771 15.1670000 2
19244 19246 19248 19250 1 180.0000771 15.1670000 2
19247 19246 19248 19249 1 180.0000771 15.1670000 2
19247 19246 19248 19250 1 180.0000771 15.1670000 2
19244 19248 19246 19247 4 180.0000771 4.6024000 2
19246 19248 19250 19251 1 180.0000771 15.1670000 2
19246 19248 19250 19252 1 180.0000771 15.1670000 2
19249 19248 19250 19251 1 180.0000771 15.1670000 2
19249 19248 19250 19252 1 180.0000771 15.1670000 2
19246 19250 19248 19249 4 180.0000771 4.6024000 2
19243 19250 19252 19253 4 180.0000771 4.6024000 2
19248 19250 19252 19253 1 180.0000771 15.1670000 2
19251 19250 19252 19253 1 180.0000771 15.1670000 2
19243 19252 19250 19248 1 180.0000771 15.1670000 2
19243 19252 19250 19251 1 180.0000771 15.1670000 2
19248 19252 19250 19251 4 180.0000771 4.6024000 2
19254 19255 19256 19257 1 180.0000771 15.1670000 2
19254 19255 19256 19258 1 180.0000771 15.1670000 2
19257 19255 19256 19258 4 180.0000771 4.6024000 2
19254 19255 19264 19256 4 180.0000771 4.6024000 2
19254 19255 19264 19262 1 180.0000771 15.1670000 2
19254 19255 19264 19265 1 180.0000771 15.1670000 2
19256 19255 19264 19262 1 180.0000771 15.1670000 2
19256 19255 19264 19265 1 180.0000771 15.1670000 2
19257 19256 19255 19264 1 180.0000771 15.1670000 2
19258 19256 19255 19264 1 180.0000771 15.1670000 2
19255 19256 19258 19259 1 180.0000771 15.1670000 2
19255 19256 19258 19260 1 180.0000771 15.1670000 2
19257 19256 19258 19259 1 180.0000771 15.1670000 2
19257 19256 19258 19260 1 180.0000771 15.1670000 2
19256 19258 19260 19261 1 180.0000771 15.1670000 2
19256 19258 19260 19262 1 180.0000771 15.1670000 2
19259 19258 19260 19261 1 180.0000771 15.1670000 2
19259 19258 19260 19262 1 180.0000771 15.1670000 2
19256 19260 19258 19259 4 180.0000771 4.6024000 2
19258 19260 19262 19263 1 180.0000771 15.1670000 2
19258 19260 19262 19264 1 180.0000771 15.1670000 2
19261 19260 19262 19263 1 180.0000771 15.1670000 2
19261 19260 19262 19264 1 180.0000771 15.1670000 2
19258 19262 19260 19261 4 180.0000771 4.6024000 2
19255 19262 19264 19265 4 180.0000771 4.6024000 2
19260 19262 19264 19265 1 180.0000771 15.1670000 2
19263 19262 19264 19265 1 180.0000771 15.1670000 2
19255 19264 19262 19260 1 180.0000771 15.1670000 2
19255 19264 19262 19263 1 180.0000771 15.1670000 2
19260 19264 19262 19263 4 180.0000771 4.6024000 2
19266 19267 19268 19269 1 180.0000771 15.1670000 2
19266 19267 19268 19270 1 180.0000771 15.1670000 2
19269 19267 19268 19270 4 180.0000771 4.6024000 2
19266 19267 19276 19268 4 180.0000771 4.6024000 2
19266 19267 19276 19274 1 180.0000771 15.1670000 2
19266 19267 19276 19277 1 180.0000771 15.1670000 2
19268 19267 19276 19274 1 180.0000771 15.1670000 2
19268 19267 19276 19277 1 180.0000771 15.1670000 2
19269 19268 19267 19276 1 180.0000771 15.1670000 2
19270 19268 19267 19276 1 180.0000771 15.1670000 2
19267 19268 19270 19271 1 180.0000771 15.1670000 2
19267 19268 19270 19272 1 180.0000771 15.1670000 2
19269 19268 19270 19271 1 180.0000771 15.1670000 2
19269 19268 19270 19272 1 180.0000771 15.1670000 2
19268 19270 19272 19273 1 180.0000771 15.1670000 2
19268 19270 19272 19274 1 180.0000771 15.1670000 2
19271 19270 19272 19273 1 180.0000771 15.1670000 2
19271 19270 19272 19274 1 180.0000771 15.1670000 2
19268 19272 19270 19271 4 180.0000771 4.6024000 2
19270 19272 19274 19275 1 180.0000771 15.1670000 2
19270 19272 19274 19276 1 180.0000771 15.1670000 2
19273 19272 19274 19275 1 180.0000771 15.1670000 2
19273 19272 19274 19276 1 180.0000771 15.1670000 2
19270 19274 19272 19273 4 180.0000771 4.6024000 2
19267 19274 19276 19277 4 180.0000771 4.6024000 2
19272 19274 19276 19277 1 180.0000771 15.1670000 2
19275 19274 19276 19277 1 180.0000771 15.1670000 2
19267 19276 19274 19272 1 180.0000771 15.1670000 2
19267 19276 19274 19275 1 180.0000771 15.1670000 2
19272 19276 19274 19275 4 180.0000771 4.6024000 2
19278 19279 19280 19281 1 180.0000771 15.1670000 2
19278 19279 19280 19282 1 180.0000771 15.1670000 2
19281 19279 19280 19282 4 180.0000771 4.6024000 2
19278 19279 19288 19280 4 180.0000771 4.6024000 2
19278 19279 19288 19286 1 180.0000771 15.1670000 2
19278 19279 19288 19289 1 180.0000771 15.1670000 2
19280 19279 19288 19286 1 180.0000771 15.1670000 2
19280 19279 19288 19289 1 180.0000771 15.1670000 2
19281 19280 19279 19288 1 180.0000771 15.1670000 2
19282 19280 19279 19288 1 180.0000771 15.1670000 2
19279 19280 19282 19283 1 180.0000771 15.1670000 2
19279 19280 19282 19284 1 180.0000771 15.1670000 2
19281 19280 19282 19283 1 180.0000771 15.1670000 2
19281 19280 19282 19284 1 180.0000771 15.1670000 2
19280 19282 19284 19285 1 180.0000771 15.1670000 2
19280 19282 19284 19286 1 180.0000771 15.1670000 2
19283 19282 19284 19285 1 180.0000771 15.1670000 2
19283 19282 19284 19286 1 180.0000771 15.1670000 2
19280 19284 19282 19283 4 180.0000771 4.6024000 2
19282 19284 19286 19287 1 180.0000771 15.1670000 2
19282 19284 19286 19288 1 180.0000771 15.1670000 2
19285 19284 19286 19287 1 180.0000771 15.1670000 2
19285 19284 19286 19288 1 180.0000771 15.1670000 2
19282 19286 19284 19285 4 180.0000771 4.6024000 2
19279 19286 19288 19289 4 180.0000771 4.6024000 2
19284 19286 19288 19289 1 180.0000771 15.1670000 2
19287 19286 19288 19289 1 180.0000771 15.1670000 2
19279 19288 19286 19284 1 180.0000771 15.1670000 2
19279 19288 19286 19287 1 180.0000771 15.1670000 2
19284 19288 19286 19287 4 180.0000771 4.6024000 2
19290 19291 19292 19293 1 180.0000771 15.1670000 2
19290 19291 19292 19294 1 180.0000771 15.1670000 2
19293 19291 19292 19294 4 180.0000771 4.6024000 2
19290 19291 19300 19292 4 180.0000771 4.6024000 2
19290 19291 19300 19298 1 180.0000771 15.1670000 2
19290 19291 19300 19301 1 180.0000771 15.1670000 2
19292 19291 19300 19298 1 180.0000771 15.1670000 2
19292 19291 19300 19301 1 180.0000771 15.1670000 2
19293 19292 19291 19300 1 180.0000771 15.1670000 2
19294 19292 19291 19300 1 180.0000771 15.1670000 2
19291 19292 19294 19295 1 180.0000771 15.1670000 2
19291 19292 19294 19296 1 180.0000771 15.1670000 2
19293 19292 19294 19295 1 180.0000771 15.1670000 2
19293 19292 19294 19296 1 180.0000771 15.1670000 2
19292 19294 19296 19297 1 180.0000771 15.1670000 2
19292 19294 19296 19298 1 180.0000771 15.1670000 2
19295 19294 19296 19297 1 180.0000771 15.1670000 2
19295 19294 19296 19298 1 180.0000771 15.1670000 2
19292 19296 19294 19295 4 180.0000771 4.6024000 2
19294 19296 19298 19299 1 180.0000771 15.1670000 2
19294 19296 19298 19300 1 180.0000771 15.1670000 2
19297 19296 19298 19299 1 180.0000771 15.1670000 2
19297 19296 19298 19300 1 180.0000771 15.1670000 2
19294 19298 19296 19297 4 180.0000771 4.6024000 2
19291 19298 19300 19301 4 180.0000771 4.6024000 2
19296 19298 19300 19301 1 180.0000771 15.1670000 2
19299 19298 19300 19301 1 180.0000771 15.1670000 2
19291 19300 19298 19296 1 180.0000771 15.1670000 2
19291 19300 19298 19299 1 180.0000771 15.1670000 2
19296 19300 19298 19299 4 180.0000771 4.6024000 2
19302 19303 19304 19305 1 180.0000771 15.1670000 2
19302 19303 19304 19306 1 180.0000771 15.1670000 2
19305 19303 19304 19306 4 180.0000771 4.6024000 2
19302 19303 19312 19304 4 180.0000771 4.6024000 2
19302 19303 19312 19310 1 180.0000771 15.1670000 2
19302 19303 19312 19313 1 180.0000771 15.1670000 2
19304 19303 19312 19310 1 180.0000771 15.1670000 2
19304 19303 19312 19313 1 180.0000771 15.1670000 2
19305 19304 19303 19312 1 180.0000771 15.1670000 2
19306 19304 19303 19312 1 180.0000771 15.1670000 2
19303 19304 19306 19307 1 180.0000771 15.1670000 2
19303 19304 19306 19308 1 180.0000771 15.1670000 2
19305 19304 19306 19307 1 180.0000771 15.1670000 2
19305 19304 19306 19308 1 180.0000771 15.1670000 2
19304 19306 19308 19309 1 180.0000771 15.1670000 2
19304 19306 19308 19310 1 180.0000771 15.1670000 2
19307 19306 19308 19309 1 180.0000771 15.1670000 2
19307 19306 19308 19310 1 180.0000771 15.1670000 2
19304 19308 19306 19307 4 180.0000771 4.6024000 2
19306 19308 19310 19311 1 180.0000771 15.1670000 2
19306 19308 19310 19312 1 180.0000771 15.1670000 2
19309 19308 19310 19311 1 180.0000771 15.1670000 2
19309 19308 19310 19312 1 180.0000771 15.1670000 2
19306 19310 19308 19309 4 180.0000771 4.6024000 2
19303 19310 19312 19313 4 180.0000771 4.6024000 2
19308 19310 19312 19313 1 180.0000771 15.1670000 2
19311 19310 19312 19313 1 180.0000771 15.1670000 2
19303 19312 19310 19308 1 180.0000771 15.1670000 2
19303 19312 19310 19311 1 180.0000771 15.1670000 2
19308 19312 19310 19311 4 180.0000771 4.6024000 2
19314 19315 19316 19317 1 180.0000771 15.1670000 2
19314 19315 19316 19318 1 180.0000771 15.1670000 2
19317 19315 19316 19318 4 180.0000771 4.6024000 2
19314 19315 19324 19316 4 180.0000771 4.6024000 2
19314 19315 19324 19322 1 180.0000771 15.1670000 2
19314 19315 19324 19325 1 180.0000771 15.1670000 2
19316 19315 19324 19322 1 180.0000771 15.1670000 2
19316 19315 19324 19325 1 180.0000771 15.1670000 2
19317 19316 19315 19324 1 180.0000771 15.1670000 2
19318 19316 19315 19324 1 180.0000771 15.1670000 2
19315 19316 19318 19319 1 180.0000771 15.1670000 2
19315 19316 19318 19320 1 180.0000771 15.1670000 2
19317 19316 19318 19319 1 180.0000771 15.1670000 2
19317 19316 19318 19320 1 180.0000771 15.1670000 2
19316 19318 19320 19321 1 180.0000771 15.1670000 2
19316 19318 19320 19322 1 180.0000771 15.1670000 2
19319 19318 19320 19321 1 180.0000771 15.1670000 2
19319 19318 19320 19322 1 180.0000771 15.1670000 2
19316 19320 19318 19319 4 180.0000771 4.6024000 2
19318 19320 19322 19323 1 180.0000771 15.1670000 2
19318 19320 19322 19324 1 180.0000771 15.1670000 2
19321 19320 19322 19323 1 180.0000771 15.1670000 2
19321 19320 19322 19324 1 180.0000771 15.1670000 2
19318 19322 19320 19321 4 180.0000771 4.6024000 2
19315 19322 19324 19325 4 180.0000771 4.6024000 2
19320 19322 19324 19325 1 180.0000771 15.1670000 2
19323 19322 19324 19325 1 180.0000771 15.1670000 2
19315 19324 19322 19320 1 180.0000771 15.1670000 2
19315 19324 19322 19323 1 180.0000771 15.1670000 2
19320 19324 19322 19323 4 180.0000771 4.6024000 2
19326 19327 19328 19329 1 180.0000771 15.1670000 2
19326 19327 19328 19330 1 180.0000771 15.1670000 2
19329 19327 19328 19330 4 180.0000771 4.6024000 2
19326 19327 19336 19328 4 180.0000771 4.6024000 2
19326 19327 19336 19334 1 180.0000771 15.1670000 2
19326 19327 19336 19337 1 180.0000771 15.1670000 2
19328 19327 19336 19334 1 180.0000771 15.1670000 2
19328 19327 19336 19337 1 180.0000771 15.1670000 2
19329 19328 19327 19336 1 180.0000771 15.1670000 2
19330 19328 19327 19336 1 180.0000771 15.1670000 2
19327 19328 19330 19331 1 180.0000771 15.1670000 2
19327 19328 19330 19332 1 180.0000771 15.1670000 2
19329 19328 19330 19331 1 180.0000771 15.1670000 2
19329 19328 19330 19332 1 180.0000771 15.1670000 2
19328 19330 19332 19333 1 180.0000771 15.1670000 2
19328 19330 19332 19334 1 180.0000771 15.1670000 2
19331 19330 19332 19333 1 180.0000771 15.1670000 2
19331 19330 19332 19334 1 180.0000771 15.1670000 2
19328 19332 19330 19331 4 180.0000771 4.6024000 2
19330 19332 19334 19335 1 180.0000771 15.1670000 2
19330 19332 19334 19336 1 180.0000771 15.1670000 2
19333 19332 19334 19335 1 180.0000771 15.1670000 2
19333 19332 19334 19336 1 180.0000771 15.1670000 2
19330 19334 19332 19333 4 180.0000771 4.6024000 2
19327 19334 19336 19337 4 180.0000771 4.6024000 2
19332 19334 19336 19337 1 180.0000771 15.1670000 2
19335 19334 19336 19337 1 180.0000771 15.1670000 2
19327 19336 19334 19332 1 180.0000771 15.1670000 2
19327 19336 19334 19335 1 180.0000771 15.1670000 2
19332 19336 19334 19335 4 180.0000771 4.6024000 2
19338 19339 19340 19341 1 180.0000771 15.1670000 2
19338 19339 19340 19342 1 180.0000771 15.1670000 2
19341 19339 19340 19342 4 180.0000771 4.6024000 2
19338 19339 19348 19340 4 180.0000771 4.6024000 2
19338 19339 19348 19346 1 180.0000771 15.1670000 2
19338 19339 19348 19349 1 180.0000771 15.1670000 2
19340 19339 19348 19346 1 180.0000771 15.1670000 2
19340 19339 19348 19349 1 180.0000771 15.1670000 2
19341 19340 19339 19348 1 180.0000771 15.1670000 2
19342 19340 19339 19348 1 180.0000771 15.1670000 2
19339 19340 19342 19343 1 180.0000771 15.1670000 2
19339 19340 19342 19344 1 180.0000771 15.1670000 2
19341 19340 19342 19343 1 180.0000771 15.1670000 2
19341 19340 19342 19344 1 180.0000771 15.1670000 2
19340 19342 19344 19345 1 180.0000771 15.1670000 2
19340 19342 19344 19346 1 180.0000771 15.1670000 2
19343 19342 19344 19345 1 180.0000771 15.1670000 2
19343 19342 19344 19346 1 180.0000771 15.1670000 2
19340 19344 19342 19343 4 180.0000771 4.6024000 2
19342 19344 19346 19347 1 180.0000771 15.1670000 2
19342 19344 19346 19348 1 180.0000771 15.1670000 2
19345 19344 19346 19347 1 180.0000771 15.1670000 2
19345 19344 19346 19348 1 180.0000771 15.1670000 2
19342 19346 19344 19345 4 180.0000771 4.6024000 2
19339 19346 19348 19349 4 180.0000771 4.6024000 2
19344 19346 19348 19349 1 180.0000771 15.1670000 2
19347 19346 19348 19349 1 180.0000771 15.1670000 2
19339 19348 19346 19344 1 180.0000771 15.1670000 2
19339 19348 19346 19347 1 180.0000771 15.1670000 2
19344 19348 19346 19347 4 180.0000771 4.6024000 2
19350 19351 19352 19353 1 180.0000771 15.1670000 2
19350 19351 19352 19354 1 180.0000771 15.1670000 2
19353 19351 19352 19354 4 180.0000771 4.6024000 2
19350 19351 19360 19352 4 180.0000771 4.6024000 2
19350 19351 19360 19358 1 180.0000771 15.1670000 2
19350 19351 19360 19361 1 180.0000771 15.1670000 2
19352 19351 19360 19358 1 180.0000771 15.1670000 2
19352 19351 19360 19361 1 180.0000771 15.1670000 2
19353 19352 19351 19360 1 180.0000771 15.1670000 2
19354 19352 19351 19360 1 180.0000771 15.1670000 2
19351 19352 19354 19355 1 180.0000771 15.1670000 2
19351 19352 19354 19356 1 180.0000771 15.1670000 2
19353 19352 19354 19355 1 180.0000771 15.1670000 2
19353 19352 19354 19356 1 180.0000771 15.1670000 2
19352 19354 19356 19357 1 180.0000771 15.1670000 2
19352 19354 19356 19358 1 180.0000771 15.1670000 2
19355 19354 19356 19357 1 180.0000771 15.1670000 2
19355 19354 19356 19358 1 180.0000771 15.1670000 2
19352 19356 19354 19355 4 180.0000771 4.6024000 2
19354 19356 19358 19359 1 180.0000771 15.1670000 2
19354 19356 19358 19360 1 180.0000771 15.1670000 2
19357 19356 19358 19359 1 180.0000771 15.1670000 2
19357 19356 19358 19360 1 180.0000771 15.1670000 2
19354 19358 19356 19357 4 180.0000771 4.6024000 2
19351 19358 19360 19361 4 180.0000771 4.6024000 2
19356 19358 19360 19361 1 180.0000771 15.1670000 2
19359 19358 19360 19361 1 180.0000771 15.1670000 2
19351 19360 19358 19356 1 180.0000771 15.1670000 2
19351 19360 19358 19359 1 180.0000771 15.1670000 2
19356 19360 19358 19359 4 180.0000771 4.6024000 2
19362 19363 19364 19365 1 180.0000771 15.1670000 2
19362 19363 19364 19366 1 180.0000771 15.1670000 2
19365 19363 19364 19366 4 180.0000771 4.6024000 2
19362 19363 19372 19364 4 180.0000771 4.6024000 2
19362 19363 19372 19370 1 180.0000771 15.1670000 2
19362 19363 19372 19373 1 180.0000771 15.1670000 2
19364 19363 19372 19370 1 180.0000771 15.1670000 2
19364 19363 19372 19373 1 180.0000771 15.1670000 2
19365 19364 19363 19372 1 180.0000771 15.1670000 2
19366 19364 19363 19372 1 180.0000771 15.1670000 2
19363 19364 19366 19367 1 180.0000771 15.1670000 2
19363 19364 19366 19368 1 180.0000771 15.1670000 2
19365 19364 19366 19367 1 180.0000771 15.1670000 2
19365 19364 19366 19368 1 180.0000771 15.1670000 2
19364 19366 19368 19369 1 180.0000771 15.1670000 2
19364 19366 19368 19370 1 180.0000771 15.1670000 2
19367 19366 19368 19369 1 180.0000771 15.1670000 2
19367 19366 19368 19370 1 180.0000771 15.1670000 2
19364 19368 19366 19367 4 180.0000771 4.6024000 2
19366 19368 19370 19371 1 180.0000771 15.1670000 2
19366 19368 19370 19372 1 180.0000771 15.1670000 2
19369 19368 19370 19371 1 180.0000771 15.1670000 2
19369 19368 19370 19372 1 180.0000771 15.1670000 2
19366 19370 19368 19369 4 180.0000771 4.6024000 2
19363 19370 19372 19373 4 180.0000771 4.6024000 2
19368 19370 19372 19373 1 180.0000771 15.1670000 2
19371 19370 19372 19373 1 180.0000771 15.1670000 2
19363 19372 19370 19368 1 180.0000771 15.1670000 2
19363 19372 19370 19371 1 180.0000771 15.1670000 2
19368 19372 19370 19371 4 180.0000771 4.6024000 2
19374 19375 19376 19377 1 180.0000771 15.1670000 2
19374 19375 19376 19378 1 180.0000771 15.1670000 2
19377 19375 19376 19378 4 180.0000771 4.6024000 2
19374 19375 19384 19376 4 180.0000771 4.6024000 2
19374 19375 19384 19382 1 180.0000771 15.1670000 2
19374 19375 19384 19385 1 180.0000771 15.1670000 2
19376 19375 19384 19382 1 180.0000771 15.1670000 2
19376 19375 19384 19385 1 180.0000771 15.1670000 2
19377 19376 19375 19384 1 180.0000771 15.1670000 2
19378 19376 19375 19384 1 180.0000771 15.1670000 2
19375 19376 19378 19379 1 180.0000771 15.1670000 2
19375 19376 19378 19380 1 180.0000771 15.1670000 2
19377 19376 19378 19379 1 180.0000771 15.1670000 2
19377 19376 19378 19380 1 180.0000771 15.1670000 2
19376 19378 19380 19381 1 180.0000771 15.1670000 2
19376 19378 19380 19382 1 180.0000771 15.1670000 2
19379 19378 19380 19381 1 180.0000771 15.1670000 2
19379 19378 19380 19382 1 180.0000771 15.1670000 2
19376 19380 19378 19379 4 180.0000771 4.6024000 2
19378 19380 19382 19383 1 180.0000771 15.1670000 2
19378 19380 19382 19384 1 180.0000771 15.1670000 2
19381 19380 19382 19383 1 180.0000771 15.1670000 2
19381 19380 19382 19384 1 180.0000771 15.1670000 2
19378 19382 19380 19381 4 180.0000771 4.6024000 2
19375 19382 19384 19385 4 180.0000771 4.6024000 2
19380 19382 19384 19385 1 180.0000771 15.1670000 2
19383 19382 19384 19385 1 180.0000771 15.1670000 2
19375 19384 19382 19380 1 180.0000771 15.1670000 2
19375 19384 19382 19383 1 180.0000771 15.1670000 2
19380 19384 19382 19383 4 180.0000771 4.6024000 2
19386 19387 19388 19389 1 180.0000771 15.1670000 2
19386 19387 19388 19390 1 180.0000771 15.1670000 2
19389 19387 19388 19390 4 180.0000771 4.6024000 2
19386 19387 19396 19388 4 180.0000771 4.6024000 2
19386 19387 19396 19394 1 180.0000771 15.1670000 2
19386 19387 19396 19397 1 180.0000771 15.1670000 2
19388 19387 19396 19394 1 180.0000771 15.1670000 2
19388 19387 19396 19397 1 180.0000771 15.1670000 2
19389 19388 19387 19396 1 180.0000771 15.1670000 2
19390 19388 19387 19396 1 180.0000771 15.1670000 2
19387 19388 19390 19391 1 180.0000771 15.1670000 2
19387 19388 19390 19392 1 180.0000771 15.1670000 2
19389 19388 19390 19391 1 180.0000771 15.1670000 2
19389 19388 19390 19392 1 180.0000771 15.1670000 2
19388 19390 19392 19393 1 180.0000771 15.1670000 2
19388 19390 19392 19394 1 180.0000771 15.1670000 2
19391 19390 19392 19393 1 180.0000771 15.1670000 2
19391 19390 19392 19394 1 180.0000771 15.1670000 2
19388 19392 19390 19391 4 180.0000771 4.6024000 2
19390 19392 19394 19395 1 180.0000771 15.1670000 2
19390 19392 19394 19396 1 180.0000771 15.1670000 2
19393 19392 19394 19395 1 180.0000771 15.1670000 2
19393 19392 19394 19396 1 180.0000771 15.1670000 2
19390 19394 19392 19393 4 180.0000771 4.6024000 2
19387 19394 19396 19397 4 180.0000771 4.6024000 2
19392 19394 19396 19397 1 180.0000771 15.1670000 2
19395 19394 19396 19397 1 180.0000771 15.1670000 2
19387 19396 19394 19392 1 180.0000771 15.1670000 2
19387 19396 19394 19395 1 180.0000771 15.1670000 2
19392 19396 19394 19395 4 180.0000771 4.6024000 2
19398 19399 19400 19401 1 180.0000771 15.1670000 2
19398 19399 19400 19402 1 180.0000771 15.1670000 2
19401 19399 19400 19402 4 180.0000771 4.6024000 2
19398 19399 19408 19400 4 180.0000771 4.6024000 2
19398 19399 19408 19406 1 180.0000771 15.1670000 2
19398 19399 19408 19409 1 180.0000771 15.1670000 2
19400 19399 19408 19406 1 180.0000771 15.1670000 2
19400 19399 19408 19409 1 180.0000771 15.1670000 2
19401 19400 19399 19408 1 180.0000771 15.1670000 2
19402 19400 19399 19408 1 180.0000771 15.1670000 2
19399 19400 19402 19403 1 180.0000771 15.1670000 2
19399 19400 19402 19404 1 180.0000771 15.1670000 2
19401 19400 19402 19403 1 180.0000771 15.1670000 2
19401 19400 19402 19404 1 180.0000771 15.1670000 2
19400 19402 19404 19405 1 180.0000771 15.1670000 2
19400 19402 19404 19406 1 180.0000771 15.1670000 2
19403 19402 19404 19405 1 180.0000771 15.1670000 2
19403 19402 19404 19406 1 180.0000771 15.1670000 2
19400 19404 19402 19403 4 180.0000771 4.6024000 2
19402 19404 19406 19407 1 180.0000771 15.1670000 2
19402 19404 19406 19408 1 180.0000771 15.1670000 2
19405 19404 19406 19407 1 180.0000771 15.1670000 2
19405 19404 19406 19408 1 180.0000771 15.1670000 2
19402 19406 19404 19405 4 180.0000771 4.6024000 2
19399 19406 19408 19409 4 180.0000771 4.6024000 2
19404 19406 19408 19409 1 180.0000771 15.1670000 2
19407 19406 19408 19409 1 180.0000771 15.1670000 2
19399 19408 19406 19404 1 180.0000771 15.1670000 2
19399 19408 19406 19407 1 180.0000771 15.1670000 2
19404 19408 19406 19407 4 180.0000771 4.6024000 2
19410 19411 19412 19413 1 180.0000771 15.1670000 2
19410 19411 19412 19414 1 180.0000771 15.1670000 2
19413 19411 19412 19414 4 180.0000771 4.6024000 2
19410 19411 19420 19412 4 180.0000771 4.6024000 2
19410 19411 19420 19418 1 180.0000771 15.1670000 2
19410 19411 19420 19421 1 180.0000771 15.1670000 2
19412 19411 19420 19418 1 180.0000771 15.1670000 2
19412 19411 19420 19421 1 180.0000771 15.1670000 2
19413 19412 19411 19420 1 180.0000771 15.1670000 2
19414 19412 19411 19420 1 180.0000771 15.1670000 2
19411 19412 19414 19415 1 180.0000771 15.1670000 2
19411 19412 19414 19416 1 180.0000771 15.1670000 2
19413 19412 19414 19415 1 180.0000771 15.1670000 2
19413 19412 19414 19416 1 180.0000771 15.1670000 2
19412 19414 19416 19417 1 180.0000771 15.1670000 2
19412 19414 19416 19418 1 180.0000771 15.1670000 2
19415 19414 19416 19417 1 180.0000771 15.1670000 2
19415 19414 19416 19418 1 180.0000771 15.1670000 2
19412 19416 19414 19415 4 180.0000771 4.6024000 2
19414 19416 19418 19419 1 180.0000771 15.1670000 2
19414 19416 19418 19420 1 180.0000771 15.1670000 2
19417 19416 19418 19419 1 180.0000771 15.1670000 2
19417 19416 19418 19420 1 180.0000771 15.1670000 2
19414 19418 19416 19417 4 180.0000771 4.6024000 2
19411 19418 19420 19421 4 180.0000771 4.6024000 2
19416 19418 19420 19421 1 180.0000771 15.1670000 2
19419 19418 19420 19421 1 180.0000771 15.1670000 2
19411 19420 19418 19416 1 180.0000771 15.1670000 2
19411 19420 19418 19419 1 180.0000771 15.1670000 2
19416 19420 19418 19419 4 180.0000771 4.6024000 2
19422 19423 19424 19425 1 180.0000771 15.1670000 2
19422 19423 19424 19426 1 180.0000771 15.1670000 2
19425 19423 19424 19426 4 180.0000771 4.6024000 2
19422 19423 19432 19424 4 180.0000771 4.6024000 2
19422 19423 19432 19430 1 180.0000771 15.1670000 2
19422 19423 19432 19433 1 180.0000771 15.1670000 2
19424 19423 19432 19430 1 180.0000771 15.1670000 2
19424 19423 19432 19433 1 180.0000771 15.1670000 2
19425 19424 19423 19432 1 180.0000771 15.1670000 2
19426 19424 19423 19432 1 180.0000771 15.1670000 2
19423 19424 19426 19427 1 180.0000771 15.1670000 2
19423 19424 19426 19428 1 180.0000771 15.1670000 2
19425 19424 19426 19427 1 180.0000771 15.1670000 2
19425 19424 19426 19428 1 180.0000771 15.1670000 2
19424 19426 19428 19429 1 180.0000771 15.1670000 2
19424 19426 19428 19430 1 180.0000771 15.1670000 2
19427 19426 19428 19429 1 180.0000771 15.1670000 2
19427 19426 19428 19430 1 180.0000771 15.1670000 2
19424 19428 19426 19427 4 180.0000771 4.6024000 2
19426 19428 19430 19431 1 180.0000771 15.1670000 2
19426 19428 19430 19432 1 180.0000771 15.1670000 2
19429 19428 19430 19431 1 180.0000771 15.1670000 2
19429 19428 19430 19432 1 180.0000771 15.1670000 2
19426 19430 19428 19429 4 180.0000771 4.6024000 2
19423 19430 19432 19433 4 180.0000771 4.6024000 2
19428 19430 19432 19433 1 180.0000771 15.1670000 2
19431 19430 19432 19433 1 180.0000771 15.1670000 2
19423 19432 19430 19428 1 180.0000771 15.1670000 2
19423 19432 19430 19431 1 180.0000771 15.1670000 2
19428 19432 19430 19431 4 180.0000771 4.6024000 2
19434 19435 19436 19437 1 180.0000771 15.1670000 2
19434 19435 19436 19438 1 180.0000771 15.1670000 2
19437 19435 19436 19438 4 180.0000771 4.6024000 2
19434 19435 19444 19436 4 180.0000771 4.6024000 2
19434 19435 19444 19442 1 180.0000771 15.1670000 2
19434 19435 19444 19445 1 180.0000771 15.1670000 2
19436 19435 19444 19442 1 180.0000771 15.1670000 2
19436 19435 19444 19445 1 180.0000771 15.1670000 2
19437 19436 19435 19444 1 180.0000771 15.1670000 2
19438 19436 19435 19444 1 180.0000771 15.1670000 2
19435 19436 19438 19439 1 180.0000771 15.1670000 2
19435 19436 19438 19440 1 180.0000771 15.1670000 2
19437 19436 19438 19439 1 180.0000771 15.1670000 2
19437 19436 19438 19440 1 180.0000771 15.1670000 2
19436 19438 19440 19441 1 180.0000771 15.1670000 2
19436 19438 19440 19442 1 180.0000771 15.1670000 2
19439 19438 19440 19441 1 180.0000771 15.1670000 2
19439 19438 19440 19442 1 180.0000771 15.1670000 2
19436 19440 19438 19439 4 180.0000771 4.6024000 2
19438 19440 19442 19443 1 180.0000771 15.1670000 2
19438 19440 19442 19444 1 180.0000771 15.1670000 2
19441 19440 19442 19443 1 180.0000771 15.1670000 2
19441 19440 19442 19444 1 180.0000771 15.1670000 2
19438 19442 19440 19441 4 180.0000771 4.6024000 2
19435 19442 19444 19445 4 180.0000771 4.6024000 2
19440 19442 19444 19445 1 180.0000771 15.1670000 2
19443 19442 19444 19445 1 180.0000771 15.1670000 2
19435 19444 19442 19440 1 180.0000771 15.1670000 2
19435 19444 19442 19443 1 180.0000771 15.1670000 2
19440 19444 19442 19443 4 180.0000771 4.6024000 2
19446 19447 19448 19449 1 180.0000771 15.1670000 2
19446 19447 19448 19450 1 180.0000771 15.1670000 2
19449 19447 19448 19450 4 180.0000771 4.6024000 2
19446 19447 19456 19448 4 180.0000771 4.6024000 2
19446 19447 19456 19454 1 180.0000771 15.1670000 2
19446 19447 19456 19457 1 180.0000771 15.1670000 2
19448 19447 19456 19454 1 180.0000771 15.1670000 2
19448 19447 19456 19457 1 180.0000771 15.1670000 2
19449 19448 19447 19456 1 180.0000771 15.1670000 2
19450 19448 19447 19456 1 180.0000771 15.1670000 2
19447 19448 19450 19451 1 180.0000771 15.1670000 2
19447 19448 19450 19452 1 180.0000771 15.1670000 2
19449 19448 19450 19451 1 180.0000771 15.1670000 2
19449 19448 19450 19452 1 180.0000771 15.1670000 2
19448 19450 19452 19453 1 180.0000771 15.1670000 2
19448 19450 19452 19454 1 180.0000771 15.1670000 2
19451 19450 19452 19453 1 180.0000771 15.1670000 2
19451 19450 19452 19454 1 180.0000771 15.1670000 2
19448 19452 19450 19451 4 180.0000771 4.6024000 2
19450 19452 19454 19455 1 180.0000771 15.1670000 2
19450 19452 19454 19456 1 180.0000771 15.1670000 2
19453 19452 19454 19455 1 180.0000771 15.1670000 2
19453 19452 19454 19456 1 180.0000771 15.1670000 2
19450 19454 19452 19453 4 180.0000771 4.6024000 2
19447 19454 19456 19457 4 180.0000771 4.6024000 2
19452 19454 19456 19457 1 180.0000771 15.1670000 2
19455 19454 19456 19457 1 180.0000771 15.1670000 2
19447 19456 19454 19452 1 180.0000771 15.1670000 2
19447 19456 19454 19455 1 180.0000771 15.1670000 2
19452 19456 19454 19455 4 180.0000771 4.6024000 2
19458 19459 19460 19461 1 180.0000771 15.1670000 2
19458 19459 19460 19462 1 180.0000771 15.1670000 2
19461 19459 19460 19462 4 180.0000771 4.6024000 2
19458 19459 19468 19460 4 180.0000771 4.6024000 2
19458 19459 19468 19466 1 180.0000771 15.1670000 2
19458 19459 19468 19469 1 180.0000771 15.1670000 2
19460 19459 19468 19466 1 180.0000771 15.1670000 2
19460 19459 19468 19469 1 180.0000771 15.1670000 2
19461 19460 19459 19468 1 180.0000771 15.1670000 2
19462 19460 19459 19468 1 180.0000771 15.1670000 2
19459 19460 19462 19463 1 180.0000771 15.1670000 2
19459 19460 19462 19464 1 180.0000771 15.1670000 2
19461 19460 19462 19463 1 180.0000771 15.1670000 2
19461 19460 19462 19464 1 180.0000771 15.1670000 2
19460 19462 19464 19465 1 180.0000771 15.1670000 2
19460 19462 19464 19466 1 180.0000771 15.1670000 2
19463 19462 19464 19465 1 180.0000771 15.1670000 2
19463 19462 19464 19466 1 180.0000771 15.1670000 2
19460 19464 19462 19463 4 180.0000771 4.6024000 2
19462 19464 19466 19467 1 180.0000771 15.1670000 2
19462 19464 19466 19468 1 180.0000771 15.1670000 2
19465 19464 19466 19467 1 180.0000771 15.1670000 2
19465 19464 19466 19468 1 180.0000771 15.1670000 2
19462 19466 19464 19465 4 180.0000771 4.6024000 2
19459 19466 19468 19469 4 180.0000771 4.6024000 2
19464 19466 19468 19469 1 180.0000771 15.1670000 2
19467 19466 19468 19469 1 180.0000771 15.1670000 2
19459 19468 19466 19464 1 180.0000771 15.1670000 2
19459 19468 19466 19467 1 180.0000771 15.1670000 2
19464 19468 19466 19467 4 180.0000771 4.6024000 2
19470 19471 19472 19473 1 180.0000771 15.1670000 2
19470 19471 19472 19474 1 180.0000771 15.1670000 2
19473 19471 19472 19474 4 180.0000771 4.6024000 2
19470 19471 19480 19472 4 180.0000771 4.6024000 2
19470 19471 19480 19478 1 180.0000771 15.1670000 2
19470 19471 19480 19481 1 180.0000771 15.1670000 2
19472 19471 19480 19478 1 180.0000771 15.1670000 2
19472 19471 19480 19481 1 180.0000771 15.1670000 2
19473 19472 19471 19480 1 180.0000771 15.1670000 2
19474 19472 19471 19480 1 180.0000771 15.1670000 2
19471 19472 19474 19475 1 180.0000771 15.1670000 2
19471 19472 19474 19476 1 180.0000771 15.1670000 2
19473 19472 19474 19475 1 180.0000771 15.1670000 2
19473 19472 19474 19476 1 180.0000771 15.1670000 2
19472 19474 19476 19477 1 180.0000771 15.1670000 2
19472 19474 19476 19478 1 180.0000771 15.1670000 2
19475 19474 19476 19477 1 180.0000771 15.1670000 2
19475 19474 19476 19478 1 180.0000771 15.1670000 2
19472 19476 19474 19475 4 180.0000771 4.6024000 2
19474 19476 19478 19479 1 180.0000771 15.1670000 2
19474 19476 19478 19480 1 180.0000771 15.1670000 2
19477 19476 19478 19479 1 180.0000771 15.1670000 2
19477 19476 19478 19480 1 180.0000771 15.1670000 2
19474 19478 19476 19477 4 180.0000771 4.6024000 2
19471 19478 19480 19481 4 180.0000771 4.6024000 2
19476 19478 19480 19481 1 180.0000771 15.1670000 2
19479 19478 19480 19481 1 180.0000771 15.1670000 2
19471 19480 19478 19476 1 180.0000771 15.1670000 2
19471 19480 19478 19479 1 180.0000771 15.1670000 2
19476 19480 19478 19479 4 180.0000771 4.6024000 2
19482 19483 19484 19485 1 180.0000771 15.1670000 2
19482 19483 19484 19486 1 180.0000771 15.1670000 2
19485 19483 19484 19486 4 180.0000771 4.6024000 2
19482 19483 19492 19484 4 180.0000771 4.6024000 2
19482 19483 19492 19490 1 180.0000771 15.1670000 2
19482 19483 19492 19493 1 180.0000771 15.1670000 2
19484 19483 19492 19490 1 180.0000771 15.1670000 2
19484 19483 19492 19493 1 180.0000771 15.1670000 2
19485 19484 19483 19492 1 180.0000771 15.1670000 2
19486 19484 19483 19492 1 180.0000771 15.1670000 2
19483 19484 19486 19487 1 180.0000771 15.1670000 2
19483 19484 19486 19488 1 180.0000771 15.1670000 2
19485 19484 19486 19487 1 180.0000771 15.1670000 2
19485 19484 19486 19488 1 180.0000771 15.1670000 2
19484 19486 19488 19489 1 180.0000771 15.1670000 2
19484 19486 19488 19490 1 180.0000771 15.1670000 2
19487 19486 19488 19489 1 180.0000771 15.1670000 2
19487 19486 19488 19490 1 180.0000771 15.1670000 2
19484 19488 19486 19487 4 180.0000771 4.6024000 2
19486 19488 19490 19491 1 180.0000771 15.1670000 2
19486 19488 19490 19492 1 180.0000771 15.1670000 2
19489 19488 19490 19491 1 180.0000771 15.1670000 2
19489 19488 19490 19492 1 180.0000771 15.1670000 2
19486 19490 19488 19489 4 180.0000771 4.6024000 2
19483 19490 19492 19493 4 180.0000771 4.6024000 2
19488 19490 19492 19493 1 180.0000771 15.1670000 2
19491 19490 19492 19493 1 180.0000771 15.1670000 2
19483 19492 19490 19488 1 180.0000771 15.1670000 2
19483 19492 19490 19491 1 180.0000771 15.1670000 2
19488 19492 19490 19491 4 180.0000771 4.6024000 2
19494 19495 19496 19497 1 180.0000771 15.1670000 2
19494 19495 19496 19498 1 180.0000771 15.1670000 2
19497 19495 19496 19498 4 180.0000771 4.6024000 2
19494 19495 19504 19496 4 180.0000771 4.6024000 2
19494 19495 19504 19502 1 180.0000771 15.1670000 2
19494 19495 19504 19505 1 180.0000771 15.1670000 2
19496 19495 19504 19502 1 180.0000771 15.1670000 2
19496 19495 19504 19505 1 180.0000771 15.1670000 2
19497 19496 19495 19504 1 180.0000771 15.1670000 2
19498 19496 19495 19504 1 180.0000771 15.1670000 2
19495 19496 19498 19499 1 180.0000771 15.1670000 2
19495 19496 19498 19500 1 180.0000771 15.1670000 2
19497 19496 19498 19499 1 180.0000771 15.1670000 2
19497 19496 19498 19500 1 180.0000771 15.1670000 2
19496 19498 19500 19501 1 180.0000771 15.1670000 2
19496 19498 19500 19502 1 180.0000771 15.1670000 2
19499 19498 19500 19501 1 180.0000771 15.1670000 2
19499 19498 19500 19502 1 180.0000771 15.1670000 2
19496 19500 19498 19499 4 180.0000771 4.6024000 2
19498 19500 19502 19503 1 180.0000771 15.1670000 2
19498 19500 19502 19504 1 180.0000771 15.1670000 2
19501 19500 19502 19503 1 180.0000771 15.1670000 2
19501 19500 19502 19504 1 180.0000771 15.1670000 2
19498 19502 19500 19501 4 180.0000771 4.6024000 2
19495 19502 19504 19505 4 180.0000771 4.6024000 2
19500 19502 19504 19505 1 180.0000771 15.1670000 2
19503 19502 19504 19505 1 180.0000771 15.1670000 2
19495 19504 19502 19500 1 180.0000771 15.1670000 2
19495 19504 19502 19503 1 180.0000771 15.1670000 2
19500 19504 19502 19503 4 180.0000771 4.6024000 2
19506 19507 19508 19509 1 180.0000771 15.1670000 2
19506 19507 19508 19510 1 180.0000771 15.1670000 2
19509 19507 19508 19510 4 180.0000771 4.6024000 2
19506 19507 19516 19508 4 180.0000771 4.6024000 2
19506 19507 19516 19514 1 180.0000771 15.1670000 2
19506 19507 19516 19517 1 180.0000771 15.1670000 2
19508 19507 19516 19514 1 180.0000771 15.1670000 2
19508 19507 19516 19517 1 180.0000771 15.1670000 2
19509 19508 19507 19516 1 180.0000771 15.1670000 2
19510 19508 19507 19516 1 180.0000771 15.1670000 2
19507 19508 19510 19511 1 180.0000771 15.1670000 2
19507 19508 19510 19512 1 180.0000771 15.1670000 2
19509 19508 19510 19511 1 180.0000771 15.1670000 2
19509 19508 19510 19512 1 180.0000771 15.1670000 2
19508 19510 19512 19513 1 180.0000771 15.1670000 2
19508 19510 19512 19514 1 180.0000771 15.1670000 2
19511 19510 19512 19513 1 180.0000771 15.1670000 2
19511 19510 19512 19514 1 180.0000771 15.1670000 2
19508 19512 19510 19511 4 180.0000771 4.6024000 2
19510 19512 19514 19515 1 180.0000771 15.1670000 2
19510 19512 19514 19516 1 180.0000771 15.1670000 2
19513 19512 19514 19515 1 180.0000771 15.1670000 2
19513 19512 19514 19516 1 180.0000771 15.1670000 2
19510 19514 19512 19513 4 180.0000771 4.6024000 2
19507 19514 19516 19517 4 180.0000771 4.6024000 2
19512 19514 19516 19517 1 180.0000771 15.1670000 2
19515 19514 19516 19517 1 180.0000771 15.1670000 2
19507 19516 19514 19512 1 180.0000771 15.1670000 2
19507 19516 19514 19515 1 180.0000771 15.1670000 2
19512 19516 19514 19515 4 180.0000771 4.6024000 2
19518 19519 19520 19521 1 180.0000771 15.1670000 2
19518 19519 19520 19522 1 180.0000771 15.1670000 2
19521 19519 19520 19522 4 180.0000771 4.6024000 2
19518 19519 19528 19520 4 180.0000771 4.6024000 2
19518 19519 19528 19526 1 180.0000771 15.1670000 2
19518 19519 19528 19529 1 180.0000771 15.1670000 2
19520 19519 19528 19526 1 180.0000771 15.1670000 2
19520 19519 19528 19529 1 180.0000771 15.1670000 2
19521 19520 19519 19528 1 180.0000771 15.1670000 2
19522 19520 19519 19528 1 180.0000771 15.1670000 2
19519 19520 19522 19523 1 180.0000771 15.1670000 2
19519 19520 19522 19524 1 180.0000771 15.1670000 2
19521 19520 19522 19523 1 180.0000771 15.1670000 2
19521 19520 19522 19524 1 180.0000771 15.1670000 2
19520 19522 19524 19525 1 180.0000771 15.1670000 2
19520 19522 19524 19526 1 180.0000771 15.1670000 2
19523 19522 19524 19525 1 180.0000771 15.1670000 2
19523 19522 19524 19526 1 180.0000771 15.1670000 2
19520 19524 19522 19523 4 180.0000771 4.6024000 2
19522 19524 19526 19527 1 180.0000771 15.1670000 2
19522 19524 19526 19528 1 180.0000771 15.1670000 2
19525 19524 19526 19527 1 180.0000771 15.1670000 2
19525 19524 19526 19528 1 180.0000771 15.1670000 2
19522 19526 19524 19525 4 180.0000771 4.6024000 2
19519 19526 19528 19529 4 180.0000771 4.6024000 2
19524 19526 19528 19529 1 180.0000771 15.1670000 2
19527 19526 19528 19529 1 180.0000771 15.1670000 2
19519 19528 19526 19524 1 180.0000771 15.1670000 2
19519 19528 19526 19527 1 180.0000771 15.1670000 2
19524 19528 19526 19527 4 180.0000771 4.6024000 2
19530 19531 19532 19533 1 180.0000771 15.1670000 2
19530 19531 19532 19534 1 180.0000771 15.1670000 2
19533 19531 19532 19534 4 180.0000771 4.6024000 2
19530 19531 19540 19532 4 180.0000771 4.6024000 2
19530 19531 19540 19538 1 180.0000771 15.1670000 2
19530 19531 19540 19541 1 180.0000771 15.1670000 2
19532 19531 19540 19538 1 180.0000771 15.1670000 2
19532 19531 19540 19541 1 180.0000771 15.1670000 2
19533 19532 19531 19540 1 180.0000771 15.1670000 2
19534 19532 19531 19540 1 180.0000771 15.1670000 2
19531 19532 19534 19535 1 180.0000771 15.1670000 2
19531 19532 19534 19536 1 180.0000771 15.1670000 2
19533 19532 19534 19535 1 180.0000771 15.1670000 2
19533 19532 19534 19536 1 180.0000771 15.1670000 2
19532 19534 19536 19537 1 180.0000771 15.1670000 2
19532 19534 19536 19538 1 180.0000771 15.1670000 2
19535 19534 19536 19537 1 180.0000771 15.1670000 2
19535 19534 19536 19538 1 180.0000771 15.1670000 2
19532 19536 19534 19535 4 180.0000771 4.6024000 2
19534 19536 19538 19539 1 180.0000771 15.1670000 2
19534 19536 19538 19540 1 180.0000771 15.1670000 2
19537 19536 19538 19539 1 180.0000771 15.1670000 2
19537 19536 19538 19540 1 180.0000771 15.1670000 2
19534 19538 19536 19537 4 180.0000771 4.6024000 2
19531 19538 19540 19541 4 180.0000771 4.6024000 2
19536 19538 19540 19541 1 180.0000771 15.1670000 2
19539 19538 19540 19541 1 180.0000771 15.1670000 2
19531 19540 19538 19536 1 180.0000771 15.1670000 2
19531 19540 19538 19539 1 180.0000771 15.1670000 2
19536 19540 19538 19539 4 180.0000771 4.6024000 2
19542 19543 19544 19545 1 180.0000771 15.1670000 2
19542 19543 19544 19546 1 180.0000771 15.1670000 2
19545 19543 19544 19546 4 180.0000771 4.6024000 2
19542 19543 19552 19544 4 180.0000771 4.6024000 2
19542 19543 19552 19550 1 180.0000771 15.1670000 2
19542 19543 19552 19553 1 180.0000771 15.1670000 2
19544 19543 19552 19550 1 180.0000771 15.1670000 2
19544 19543 19552 19553 1 180.0000771 15.1670000 2
19545 19544 19543 19552 1 180.0000771 15.1670000 2
19546 19544 19543 19552 1 180.0000771 15.1670000 2
19543 19544 19546 19547 1 180.0000771 15.1670000 2
19543 19544 19546 19548 1 180.0000771 15.1670000 2
19545 19544 19546 19547 1 180.0000771 15.1670000 2
19545 19544 19546 19548 1 180.0000771 15.1670000 2
19544 19546 19548 19549 1 180.0000771 15.1670000 2
19544 19546 19548 19550 1 180.0000771 15.1670000 2
19547 19546 19548 19549 1 180.0000771 15.1670000 2
19547 19546 19548 19550 1 180.0000771 15.1670000 2
19544 19548 19546 19547 4 180.0000771 4.6024000 2
19546 19548 19550 19551 1 180.0000771 15.1670000 2
19546 19548 19550 19552 1 180.0000771 15.1670000 2
19549 19548 19550 19551 1 180.0000771 15.1670000 2
19549 19548 19550 19552 1 180.0000771 15.1670000 2
19546 19550 19548 19549 4 180.0000771 4.6024000 2
19543 19550 19552 19553 4 180.0000771 4.6024000 2
19548 19550 19552 19553 1 180.0000771 15.1670000 2
19551 19550 19552 19553 1 180.0000771 15.1670000 2
19543 19552 19550 19548 1 180.0000771 15.1670000 2
19543 19552 19550 19551 1 180.0000771 15.1670000 2
19548 19552 19550 19551 4 180.0000771 4.6024000 2
19554 19555 19556 19557 1 180.0000771 15.1670000 2
19554 19555 19556 19558 1 180.0000771 15.1670000 2
19557 19555 19556 19558 4 180.0000771 4.6024000 2
19554 19555 19564 19556 4 180.0000771 4.6024000 2
19554 19555 19564 19562 1 180.0000771 15.1670000 2
19554 19555 19564 19565 1 180.0000771 15.1670000 2
19556 19555 19564 19562 1 180.0000771 15.1670000 2
19556 19555 19564 19565 1 180.0000771 15.1670000 2
19557 19556 19555 19564 1 180.0000771 15.1670000 2
19558 19556 19555 19564 1 180.0000771 15.1670000 2
19555 19556 19558 19559 1 180.0000771 15.1670000 2
19555 19556 19558 19560 1 180.0000771 15.1670000 2
19557 19556 19558 19559 1 180.0000771 15.1670000 2
19557 19556 19558 19560 1 180.0000771 15.1670000 2
19556 19558 19560 19561 1 180.0000771 15.1670000 2
19556 19558 19560 19562 1 180.0000771 15.1670000 2
19559 19558 19560 19561 1 180.0000771 15.1670000 2
19559 19558 19560 19562 1 180.0000771 15.1670000 2
19556 19560 19558 19559 4 180.0000771 4.6024000 2
19558 19560 19562 19563 1 180.0000771 15.1670000 2
19558 19560 19562 19564 1 180.0000771 15.1670000 2
19561 19560 19562 19563 1 180.0000771 15.1670000 2
19561 19560 19562 19564 1 180.0000771 15.1670000 2
19558 19562 19560 19561 4 180.0000771 4.6024000 2
19555 19562 19564 19565 4 180.0000771 4.6024000 2
19560 19562 19564 19565 1 180.0000771 15.1670000 2
19563 19562 19564 19565 1 180.0000771 15.1670000 2
19555 19564 19562 19560 1 180.0000771 15.1670000 2
19555 19564 19562 19563 1 180.0000771 15.1670000 2
19560 19564 19562 19563 4 180.0000771 4.6024000 2
19566 19567 19568 19569 1 180.0000771 15.1670000 2
19566 19567 19568 19570 1 180.0000771 15.1670000 2
19569 19567 19568 19570 4 180.0000771 4.6024000 2
19566 19567 19576 19568 4 180.0000771 4.6024000 2
19566 19567 19576 19574 1 180.0000771 15.1670000 2
19566 19567 19576 19577 1 180.0000771 15.1670000 2
19568 19567 19576 19574 1 180.0000771 15.1670000 2
19568 19567 19576 19577 1 180.0000771 15.1670000 2
19569 19568 19567 19576 1 180.0000771 15.1670000 2
19570 19568 19567 19576 1 180.0000771 15.1670000 2
19567 19568 19570 19571 1 180.0000771 15.1670000 2
19567 19568 19570 19572 1 180.0000771 15.1670000 2
19569 19568 19570 19571 1 180.0000771 15.1670000 2
19569 19568 19570 19572 1 180.0000771 15.1670000 2
19568 19570 19572 19573 1 180.0000771 15.1670000 2
19568 19570 19572 19574 1 180.0000771 15.1670000 2
19571 19570 19572 19573 1 180.0000771 15.1670000 2
19571 19570 19572 19574 1 180.0000771 15.1670000 2
19568 19572 19570 19571 4 180.0000771 4.6024000 2
19570 19572 19574 19575 1 180.0000771 15.1670000 2
19570 19572 19574 19576 1 180.0000771 15.1670000 2
19573 19572 19574 19575 1 180.0000771 15.1670000 2
19573 19572 19574 19576 1 180.0000771 15.1670000 2
19570 19574 19572 19573 4 180.0000771 4.6024000 2
19567 19574 19576 19577 4 180.0000771 4.6024000 2
19572 19574 19576 19577 1 180.0000771 15.1670000 2
19575 19574 19576 19577 1 180.0000771 15.1670000 2
19567 19576 19574 19572 1 180.0000771 15.1670000 2
19567 19576 19574 19575 1 180.0000771 15.1670000 2
19572 19576 19574 19575 4 180.0000771 4.6024000 2
19578 19579 19580 19581 1 180.0000771 15.1670000 2
19578 19579 19580 19582 1 180.0000771 15.1670000 2
19581 19579 19580 19582 4 180.0000771 4.6024000 2
19578 19579 19588 19580 4 180.0000771 4.6024000 2
19578 19579 19588 19586 1 180.0000771 15.1670000 2
19578 19579 19588 19589 1 180.0000771 15.1670000 2
19580 19579 19588 19586 1 180.0000771 15.1670000 2
19580 19579 19588 19589 1 180.0000771 15.1670000 2
19581 19580 19579 19588 1 180.0000771 15.1670000 2
19582 19580 19579 19588 1 180.0000771 15.1670000 2
19579 19580 19582 19583 1 180.0000771 15.1670000 2
19579 19580 19582 19584 1 180.0000771 15.1670000 2
19581 19580 19582 19583 1 180.0000771 15.1670000 2
19581 19580 19582 19584 1 180.0000771 15.1670000 2
19580 19582 19584 19585 1 180.0000771 15.1670000 2
19580 19582 19584 19586 1 180.0000771 15.1670000 2
19583 19582 19584 19585 1 180.0000771 15.1670000 2
19583 19582 19584 19586 1 180.0000771 15.1670000 2
19580 19584 19582 19583 4 180.0000771 4.6024000 2
19582 19584 19586 19587 1 180.0000771 15.1670000 2
19582 19584 19586 19588 1 180.0000771 15.1670000 2
19585 19584 19586 19587 1 180.0000771 15.1670000 2
19585 19584 19586 19588 1 180.0000771 15.1670000 2
19582 19586 19584 19585 4 180.0000771 4.6024000 2
19579 19586 19588 19589 4 180.0000771 4.6024000 2
19584 19586 19588 19589 1 180.0000771 15.1670000 2
19587 19586 19588 19589 1 180.0000771 15.1670000 2
19579 19588 19586 19584 1 180.0000771 15.1670000 2
19579 19588 19586 19587 1 180.0000771 15.1670000 2
19584 19588 19586 19587 4 180.0000771 4.6024000 2
19590 19591 19592 19593 1 180.0000771 15.1670000 2
19590 19591 19592 19594 1 180.0000771 15.1670000 2
19593 19591 19592 19594 4 180.0000771 4.6024000 2
19590 19591 19600 19592 4 180.0000771 4.6024000 2
19590 19591 19600 19598 1 180.0000771 15.1670000 2
19590 19591 19600 19601 1 180.0000771 15.1670000 2
19592 19591 19600 19598 1 180.0000771 15.1670000 2
19592 19591 19600 19601 1 180.0000771 15.1670000 2
19593 19592 19591 19600 1 180.0000771 15.1670000 2
19594 19592 19591 19600 1 180.0000771 15.1670000 2
19591 19592 19594 19595 1 180.0000771 15.1670000 2
19591 19592 19594 19596 1 180.0000771 15.1670000 2
19593 19592 19594 19595 1 180.0000771 15.1670000 2
19593 19592 19594 19596 1 180.0000771 15.1670000 2
19592 19594 19596 19597 1 180.0000771 15.1670000 2
19592 19594 19596 19598 1 180.0000771 15.1670000 2
19595 19594 19596 19597 1 180.0000771 15.1670000 2
19595 19594 19596 19598 1 180.0000771 15.1670000 2
19592 19596 19594 19595 4 180.0000771 4.6024000 2
19594 19596 19598 19599 1 180.0000771 15.1670000 2
19594 19596 19598 19600 1 180.0000771 15.1670000 2
19597 19596 19598 19599 1 180.0000771 15.1670000 2
19597 19596 19598 19600 1 180.0000771 15.1670000 2
19594 19598 19596 19597 4 180.0000771 4.6024000 2
19591 19598 19600 19601 4 180.0000771 4.6024000 2
19596 19598 19600 19601 1 180.0000771 15.1670000 2
19599 19598 19600 19601 1 180.0000771 15.1670000 2
19591 19600 19598 19596 1 180.0000771 15.1670000 2
19591 19600 19598 19599 1 180.0000771 15.1670000 2
19596 19600 19598 19599 4 180.0000771 4.6024000 2
19602 19603 19604 19605 1 180.0000771 15.1670000 2
19602 19603 19604 19606 1 180.0000771 15.1670000 2
19605 19603 19604 19606 4 180.0000771 4.6024000 2
19602 19603 19612 19604 4 180.0000771 4.6024000 2
19602 19603 19612 19610 1 180.0000771 15.1670000 2
19602 19603 19612 19613 1 180.0000771 15.1670000 2
19604 19603 19612 19610 1 180.0000771 15.1670000 2
19604 19603 19612 19613 1 180.0000771 15.1670000 2
19605 19604 19603 19612 1 180.0000771 15.1670000 2
19606 19604 19603 19612 1 180.0000771 15.1670000 2
19603 19604 19606 19607 1 180.0000771 15.1670000 2
19603 19604 19606 19608 1 180.0000771 15.1670000 2
19605 19604 19606 19607 1 180.0000771 15.1670000 2
19605 19604 19606 19608 1 180.0000771 15.1670000 2
19604 19606 19608 19609 1 180.0000771 15.1670000 2
19604 19606 19608 19610 1 180.0000771 15.1670000 2
19607 19606 19608 19609 1 180.0000771 15.1670000 2
19607 19606 19608 19610 1 180.0000771 15.1670000 2
19604 19608 19606 19607 4 180.0000771 4.6024000 2
19606 19608 19610 19611 1 180.0000771 15.1670000 2
19606 19608 19610 19612 1 180.0000771 15.1670000 2
19609 19608 19610 19611 1 180.0000771 15.1670000 2
19609 19608 19610 19612 1 180.0000771 15.1670000 2
19606 19610 19608 19609 4 180.0000771 4.6024000 2
19603 19610 19612 19613 4 180.0000771 4.6024000 2
19608 19610 19612 19613 1 180.0000771 15.1670000 2
19611 19610 19612 19613 1 180.0000771 15.1670000 2
19603 19612 19610 19608 1 180.0000771 15.1670000 2
19603 19612 19610 19611 1 180.0000771 15.1670000 2
19608 19612 19610 19611 4 180.0000771 4.6024000 2
19614 19615 19616 19617 1 180.0000771 15.1670000 2
19614 19615 19616 19618 1 180.0000771 15.1670000 2
19617 19615 19616 19618 4 180.0000771 4.6024000 2
19614 19615 19624 19616 4 180.0000771 4.6024000 2
19614 19615 19624 19622 1 180.0000771 15.1670000 2
19614 19615 19624 19625 1 180.0000771 15.1670000 2
19616 19615 19624 19622 1 180.0000771 15.1670000 2
19616 19615 19624 19625 1 180.0000771 15.1670000 2
19617 19616 19615 19624 1 180.0000771 15.1670000 2
19618 19616 19615 19624 1 180.0000771 15.1670000 2
19615 19616 19618 19619 1 180.0000771 15.1670000 2
19615 19616 19618 19620 1 180.0000771 15.1670000 2
19617 19616 19618 19619 1 180.0000771 15.1670000 2
19617 19616 19618 19620 1 180.0000771 15.1670000 2
19616 19618 19620 19621 1 180.0000771 15.1670000 2
19616 19618 19620 19622 1 180.0000771 15.1670000 2
19619 19618 19620 19621 1 180.0000771 15.1670000 2
19619 19618 19620 19622 1 180.0000771 15.1670000 2
19616 19620 19618 19619 4 180.0000771 4.6024000 2
19618 19620 19622 19623 1 180.0000771 15.1670000 2
19618 19620 19622 19624 1 180.0000771 15.1670000 2
19621 19620 19622 19623 1 180.0000771 15.1670000 2
19621 19620 19622 19624 1 180.0000771 15.1670000 2
19618 19622 19620 19621 4 180.0000771 4.6024000 2
19615 19622 19624 19625 4 180.0000771 4.6024000 2
19620 19622 19624 19625 1 180.0000771 15.1670000 2
19623 19622 19624 19625 1 180.0000771 15.1670000 2
19615 19624 19622 19620 1 180.0000771 15.1670000 2
19615 19624 19622 19623 1 180.0000771 15.1670000 2
19620 19624 19622 19623 4 180.0000771 4.6024000 2
19626 19627 19628 19629 1 180.0000771 15.1670000 2
19626 19627 19628 19630 1 180.0000771 15.1670000 2
19629 19627 19628 19630 4 180.0000771 4.6024000 2
19626 19627 19636 19628 4 180.0000771 4.6024000 2
19626 19627 19636 19634 1 180.0000771 15.1670000 2
19626 19627 19636 19637 1 180.0000771 15.1670000 2
19628 19627 19636 19634 1 180.0000771 15.1670000 2
19628 19627 19636 19637 1 180.0000771 15.1670000 2
19629 19628 19627 19636 1 180.0000771 15.1670000 2
19630 19628 19627 19636 1 180.0000771 15.1670000 2
19627 19628 19630 19631 1 180.0000771 15.1670000 2
19627 19628 19630 19632 1 180.0000771 15.1670000 2
19629 19628 19630 19631 1 180.0000771 15.1670000 2
19629 19628 19630 19632 1 180.0000771 15.1670000 2
19628 19630 19632 19633 1 180.0000771 15.1670000 2
19628 19630 19632 19634 1 180.0000771 15.1670000 2
19631 19630 19632 19633 1 180.0000771 15.1670000 2
19631 19630 19632 19634 1 180.0000771 15.1670000 2
19628 19632 19630 19631 4 180.0000771 4.6024000 2
19630 19632 19634 19635 1 180.0000771 15.1670000 2
19630 19632 19634 19636 1 180.0000771 15.1670000 2
19633 19632 19634 19635 1 180.0000771 15.1670000 2
19633 19632 19634 19636 1 180.0000771 15.1670000 2
19630 19634 19632 19633 4 180.0000771 4.6024000 2
19627 19634 19636 19637 4 180.0000771 4.6024000 2
19632 19634 19636 19637 1 180.0000771 15.1670000 2
19635 19634 19636 19637 1 180.0000771 15.1670000 2
19627 19636 19634 19632 1 180.0000771 15.1670000 2
19627 19636 19634 19635 1 180.0000771 15.1670000 2
19632 19636 19634 19635 4 180.0000771 4.6024000 2
19638 19639 19640 19641 1 180.0000771 15.1670000 2
19638 19639 19640 19642 1 180.0000771 15.1670000 2
19641 19639 19640 19642 4 180.0000771 4.6024000 2
19638 19639 19648 19640 4 180.0000771 4.6024000 2
19638 19639 19648 19646 1 180.0000771 15.1670000 2
19638 19639 19648 19649 1 180.0000771 15.1670000 2
19640 19639 19648 19646 1 180.0000771 15.1670000 2
19640 19639 19648 19649 1 180.0000771 15.1670000 2
19641 19640 19639 19648 1 180.0000771 15.1670000 2
19642 19640 19639 19648 1 180.0000771 15.1670000 2
19639 19640 19642 19643 1 180.0000771 15.1670000 2
19639 19640 19642 19644 1 180.0000771 15.1670000 2
19641 19640 19642 19643 1 180.0000771 15.1670000 2
19641 19640 19642 19644 1 180.0000771 15.1670000 2
19640 19642 19644 19645 1 180.0000771 15.1670000 2
19640 19642 19644 19646 1 180.0000771 15.1670000 2
19643 19642 19644 19645 1 180.0000771 15.1670000 2
19643 19642 19644 19646 1 180.0000771 15.1670000 2
19640 19644 19642 19643 4 180.0000771 4.6024000 2
19642 19644 19646 19647 1 180.0000771 15.1670000 2
19642 19644 19646 19648 1 180.0000771 15.1670000 2
19645 19644 19646 19647 1 180.0000771 15.1670000 2
19645 19644 19646 19648 1 180.0000771 15.1670000 2
19642 19646 19644 19645 4 180.0000771 4.6024000 2
19639 19646 19648 19649 4 180.0000771 4.6024000 2
19644 19646 19648 19649 1 180.0000771 15.1670000 2
19647 19646 19648 19649 1 180.0000771 15.1670000 2
19639 19648 19646 19644 1 180.0000771 15.1670000 2
19639 19648 19646 19647 1 180.0000771 15.1670000 2
19644 19648 19646 19647 4 180.0000771 4.6024000 2
19650 19651 19652 19653 1 180.0000771 15.1670000 2
19650 19651 19652 19654 1 180.0000771 15.1670000 2
19653 19651 19652 19654 4 180.0000771 4.6024000 2
19650 19651 19660 19652 4 180.0000771 4.6024000 2
19650 19651 19660 19658 1 180.0000771 15.1670000 2
19650 19651 19660 19661 1 180.0000771 15.1670000 2
19652 19651 19660 19658 1 180.0000771 15.1670000 2
19652 19651 19660 19661 1 180.0000771 15.1670000 2
19653 19652 19651 19660 1 180.0000771 15.1670000 2
19654 19652 19651 19660 1 180.0000771 15.1670000 2
19651 19652 19654 19655 1 180.0000771 15.1670000 2
19651 19652 19654 19656 1 180.0000771 15.1670000 2
19653 19652 19654 19655 1 180.0000771 15.1670000 2
19653 19652 19654 19656 1 180.0000771 15.1670000 2
19652 19654 19656 19657 1 180.0000771 15.1670000 2
19652 19654 19656 19658 1 180.0000771 15.1670000 2
19655 19654 19656 19657 1 180.0000771 15.1670000 2
19655 19654 19656 19658 1 180.0000771 15.1670000 2
19652 19656 19654 19655 4 180.0000771 4.6024000 2
19654 19656 19658 19659 1 180.0000771 15.1670000 2
19654 19656 19658 19660 1 180.0000771 15.1670000 2
19657 19656 19658 19659 1 180.0000771 15.1670000 2
19657 19656 19658 19660 1 180.0000771 15.1670000 2
19654 19658 19656 19657 4 180.0000771 4.6024000 2
19651 19658 19660 19661 4 180.0000771 4.6024000 2
19656 19658 19660 19661 1 180.0000771 15.1670000 2
19659 19658 19660 19661 1 180.0000771 15.1670000 2
19651 19660 19658 19656 1 180.0000771 15.1670000 2
19651 19660 19658 19659 1 180.0000771 15.1670000 2
19656 19660 19658 19659 4 180.0000771 4.6024000 2
19662 19663 19664 19665 1 180.0000771 15.1670000 2
19662 19663 19664 19666 1 180.0000771 15.1670000 2
19665 19663 19664 19666 4 180.0000771 4.6024000 2
19662 19663 19672 19664 4 180.0000771 4.6024000 2
19662 19663 19672 19670 1 180.0000771 15.1670000 2
19662 19663 19672 19673 1 180.0000771 15.1670000 2
19664 19663 19672 19670 1 180.0000771 15.1670000 2
19664 19663 19672 19673 1 180.0000771 15.1670000 2
19665 19664 19663 19672 1 180.0000771 15.1670000 2
19666 19664 19663 19672 1 180.0000771 15.1670000 2
19663 19664 19666 19667 1 180.0000771 15.1670000 2
19663 19664 19666 19668 1 180.0000771 15.1670000 2
19665 19664 19666 19667 1 180.0000771 15.1670000 2
19665 19664 19666 19668 1 180.0000771 15.1670000 2
19664 19666 19668 19669 1 180.0000771 15.1670000 2
19664 19666 19668 19670 1 180.0000771 15.1670000 2
19667 19666 19668 19669 1 180.0000771 15.1670000 2
19667 19666 19668 19670 1 180.0000771 15.1670000 2
19664 19668 19666 19667 4 180.0000771 4.6024000 2
19666 19668 19670 19671 1 180.0000771 15.1670000 2
19666 19668 19670 19672 1 180.0000771 15.1670000 2
19669 19668 19670 19671 1 180.0000771 15.1670000 2
19669 19668 19670 19672 1 180.0000771 15.1670000 2
19666 19670 19668 19669 4 180.0000771 4.6024000 2
19663 19670 19672 19673 4 180.0000771 4.6024000 2
19668 19670 19672 19673 1 180.0000771 15.1670000 2
19671 19670 19672 19673 1 180.0000771 15.1670000 2
19663 19672 19670 19668 1 180.0000771 15.1670000 2
19663 19672 19670 19671 1 180.0000771 15.1670000 2
19668 19672 19670 19671 4 180.0000771 4.6024000 2
19674 19675 19676 19677 1 180.0000771 15.1670000 2
19674 19675 19676 19678 1 180.0000771 15.1670000 2
19677 19675 19676 19678 4 180.0000771 4.6024000 2
19674 19675 19684 19676 4 180.0000771 4.6024000 2
19674 19675 19684 19682 1 180.0000771 15.1670000 2
19674 19675 19684 19685 1 180.0000771 15.1670000 2
19676 19675 19684 19682 1 180.0000771 15.1670000 2
19676 19675 19684 19685 1 180.0000771 15.1670000 2
19677 19676 19675 19684 1 180.0000771 15.1670000 2
19678 19676 19675 19684 1 180.0000771 15.1670000 2
19675 19676 19678 19679 1 180.0000771 15.1670000 2
19675 19676 19678 19680 1 180.0000771 15.1670000 2
19677 19676 19678 19679 1 180.0000771 15.1670000 2
19677 19676 19678 19680 1 180.0000771 15.1670000 2
19676 19678 19680 19681 1 180.0000771 15.1670000 2
19676 19678 19680 19682 1 180.0000771 15.1670000 2
19679 19678 19680 19681 1 180.0000771 15.1670000 2
19679 19678 19680 19682 1 180.0000771 15.1670000 2
19676 19680 19678 19679 4 180.0000771 4.6024000 2
19678 19680 19682 19683 1 180.0000771 15.1670000 2
19678 19680 19682 19684 1 180.0000771 15.1670000 2
19681 19680 19682 19683 1 180.0000771 15.1670000 2
19681 19680 19682 19684 1 180.0000771 15.1670000 2
19678 19682 19680 19681 4 180.0000771 4.6024000 2
19675 19682 19684 19685 4 180.0000771 4.6024000 2
19680 19682 19684 19685 1 180.0000771 15.1670000 2
19683 19682 19684 19685 1 180.0000771 15.1670000 2
19675 19684 19682 19680 1 180.0000771 15.1670000 2
19675 19684 19682 19683 1 180.0000771 15.1670000 2
19680 19684 19682 19683 4 180.0000771 4.6024000 2
19686 19687 19688 19689 1 180.0000771 15.1670000 2
19686 19687 19688 19690 1 180.0000771 15.1670000 2
19689 19687 19688 19690 4 180.0000771 4.6024000 2
19686 19687 19696 19688 4 180.0000771 4.6024000 2
19686 19687 19696 19694 1 180.0000771 15.1670000 2
19686 19687 19696 19697 1 180.0000771 15.1670000 2
19688 19687 19696 19694 1 180.0000771 15.1670000 2
19688 19687 19696 19697 1 180.0000771 15.1670000 2
19689 19688 19687 19696 1 180.0000771 15.1670000 2
19690 19688 19687 19696 1 180.0000771 15.1670000 2
19687 19688 19690 19691 1 180.0000771 15.1670000 2
19687 19688 19690 19692 1 180.0000771 15.1670000 2
19689 19688 19690 19691 1 180.0000771 15.1670000 2
19689 19688 19690 19692 1 180.0000771 15.1670000 2
19688 19690 19692 19693 1 180.0000771 15.1670000 2
19688 19690 19692 19694 1 180.0000771 15.1670000 2
19691 19690 19692 19693 1 180.0000771 15.1670000 2
19691 19690 19692 19694 1 180.0000771 15.1670000 2
19688 19692 19690 19691 4 180.0000771 4.6024000 2
19690 19692 19694 19695 1 180.0000771 15.1670000 2
19690 19692 19694 19696 1 180.0000771 15.1670000 2
19693 19692 19694 19695 1 180.0000771 15.1670000 2
19693 19692 19694 19696 1 180.0000771 15.1670000 2
19690 19694 19692 19693 4 180.0000771 4.6024000 2
19687 19694 19696 19697 4 180.0000771 4.6024000 2
19692 19694 19696 19697 1 180.0000771 15.1670000 2
19695 19694 19696 19697 1 180.0000771 15.1670000 2
19687 19696 19694 19692 1 180.0000771 15.1670000 2
19687 19696 19694 19695 1 180.0000771 15.1670000 2
19692 19696 19694 19695 4 180.0000771 4.6024000 2
19698 19699 19700 19701 1 180.0000771 15.1670000 2
19698 19699 19700 19702 1 180.0000771 15.1670000 2
19701 19699 19700 19702 4 180.0000771 4.6024000 2
19698 19699 19708 19700 4 180.0000771 4.6024000 2
19698 19699 19708 19706 1 180.0000771 15.1670000 2
19698 19699 19708 19709 1 180.0000771 15.1670000 2
19700 19699 19708 19706 1 180.0000771 15.1670000 2
19700 19699 19708 19709 1 180.0000771 15.1670000 2
19701 19700 19699 19708 1 180.0000771 15.1670000 2
19702 19700 19699 19708 1 180.0000771 15.1670000 2
19699 19700 19702 19703 1 180.0000771 15.1670000 2
19699 19700 19702 19704 1 180.0000771 15.1670000 2
19701 19700 19702 19703 1 180.0000771 15.1670000 2
19701 19700 19702 19704 1 180.0000771 15.1670000 2
19700 19702 19704 19705 1 180.0000771 15.1670000 2
19700 19702 19704 19706 1 180.0000771 15.1670000 2
19703 19702 19704 19705 1 180.0000771 15.1670000 2
19703 19702 19704 19706 1 180.0000771 15.1670000 2
19700 19704 19702 19703 4 180.0000771 4.6024000 2
19702 19704 19706 19707 1 180.0000771 15.1670000 2
19702 19704 19706 19708 1 180.0000771 15.1670000 2
19705 19704 19706 19707 1 180.0000771 15.1670000 2
19705 19704 19706 19708 1 180.0000771 15.1670000 2
19702 19706 19704 19705 4 180.0000771 4.6024000 2
19699 19706 19708 19709 4 180.0000771 4.6024000 2
19704 19706 19708 19709 1 180.0000771 15.1670000 2
19707 19706 19708 19709 1 180.0000771 15.1670000 2
19699 19708 19706 19704 1 180.0000771 15.1670000 2
19699 19708 19706 19707 1 180.0000771 15.1670000 2
19704 19708 19706 19707 4 180.0000771 4.6024000 2
19710 19711 19712 19713 1 180.0000771 15.1670000 2
19710 19711 19712 19714 1 180.0000771 15.1670000 2
19713 19711 19712 19714 4 180.0000771 4.6024000 2
19710 19711 19720 19712 4 180.0000771 4.6024000 2
19710 19711 19720 19718 1 180.0000771 15.1670000 2
19710 19711 19720 19721 1 180.0000771 15.1670000 2
19712 19711 19720 19718 1 180.0000771 15.1670000 2
19712 19711 19720 19721 1 180.0000771 15.1670000 2
19713 19712 19711 19720 1 180.0000771 15.1670000 2
19714 19712 19711 19720 1 180.0000771 15.1670000 2
19711 19712 19714 19715 1 180.0000771 15.1670000 2
19711 19712 19714 19716 1 180.0000771 15.1670000 2
19713 19712 19714 19715 1 180.0000771 15.1670000 2
19713 19712 19714 19716 1 180.0000771 15.1670000 2
19712 19714 19716 19717 1 180.0000771 15.1670000 2
19712 19714 19716 19718 1 180.0000771 15.1670000 2
19715 19714 19716 19717 1 180.0000771 15.1670000 2
19715 19714 19716 19718 1 180.0000771 15.1670000 2
19712 19716 19714 19715 4 180.0000771 4.6024000 2
19714 19716 19718 19719 1 180.0000771 15.1670000 2
19714 19716 19718 19720 1 180.0000771 15.1670000 2
19717 19716 19718 19719 1 180.0000771 15.1670000 2
19717 19716 19718 19720 1 180.0000771 15.1670000 2
19714 19718 19716 19717 4 180.0000771 4.6024000 2
19711 19718 19720 19721 4 180.0000771 4.6024000 2
19716 19718 19720 19721 1 180.0000771 15.1670000 2
19719 19718 19720 19721 1 180.0000771 15.1670000 2
19711 19720 19718 19716 1 180.0000771 15.1670000 2
19711 19720 19718 19719 1 180.0000771 15.1670000 2
19716 19720 19718 19719 4 180.0000771 4.6024000 2
19722 19723 19724 19725 1 180.0000771 15.1670000 2
19722 19723 19724 19726 1 180.0000771 15.1670000 2
19725 19723 19724 19726 4 180.0000771 4.6024000 2
19722 19723 19732 19724 4 180.0000771 4.6024000 2
19722 19723 19732 19730 1 180.0000771 15.1670000 2
19722 19723 19732 19733 1 180.0000771 15.1670000 2
19724 19723 19732 19730 1 180.0000771 15.1670000 2
19724 19723 19732 19733 1 180.0000771 15.1670000 2
19725 19724 19723 19732 1 180.0000771 15.1670000 2
19726 19724 19723 19732 1 180.0000771 15.1670000 2
19723 19724 19726 19727 1 180.0000771 15.1670000 2
19723 19724 19726 19728 1 180.0000771 15.1670000 2
19725 19724 19726 19727 1 180.0000771 15.1670000 2
19725 19724 19726 19728 1 180.0000771 15.1670000 2
19724 19726 19728 19729 1 180.0000771 15.1670000 2
19724 19726 19728 19730 1 180.0000771 15.1670000 2
19727 19726 19728 19729 1 180.0000771 15.1670000 2
19727 19726 19728 19730 1 180.0000771 15.1670000 2
19724 19728 19726 19727 4 180.0000771 4.6024000 2
19726 19728 19730 19731 1 180.0000771 15.1670000 2
19726 19728 19730 19732 1 180.0000771 15.1670000 2
19729 19728 19730 19731 1 180.0000771 15.1670000 2
19729 19728 19730 19732 1 180.0000771 15.1670000 2
19726 19730 19728 19729 4 180.0000771 4.6024000 2
19723 19730 19732 19733 4 180.0000771 4.6024000 2
19728 19730 19732 19733 1 180.0000771 15.1670000 2
19731 19730 19732 19733 1 180.0000771 15.1670000 2
19723 19732 19730 19728 1 180.0000771 15.1670000 2
19723 19732 19730 19731 1 180.0000771 15.1670000 2
19728 19732 19730 19731 4 180.0000771 4.6024000 2
19734 19735 19736 19737 1 180.0000771 15.1670000 2
19734 19735 19736 19738 1 180.0000771 15.1670000 2
19737 19735 19736 19738 4 180.0000771 4.6024000 2
19734 19735 19744 19736 4 180.0000771 4.6024000 2
19734 19735 19744 19742 1 180.0000771 15.1670000 2
19734 19735 19744 19745 1 180.0000771 15.1670000 2
19736 19735 19744 19742 1 180.0000771 15.1670000 2
19736 19735 19744 19745 1 180.0000771 15.1670000 2
19737 19736 19735 19744 1 180.0000771 15.1670000 2
19738 19736 19735 19744 1 180.0000771 15.1670000 2
19735 19736 19738 19739 1 180.0000771 15.1670000 2
19735 19736 19738 19740 1 180.0000771 15.1670000 2
19737 19736 19738 19739 1 180.0000771 15.1670000 2
19737 19736 19738 19740 1 180.0000771 15.1670000 2
19736 19738 19740 19741 1 180.0000771 15.1670000 2
19736 19738 19740 19742 1 180.0000771 15.1670000 2
19739 19738 19740 19741 1 180.0000771 15.1670000 2
19739 19738 19740 19742 1 180.0000771 15.1670000 2
19736 19740 19738 19739 4 180.0000771 4.6024000 2
19738 19740 19742 19743 1 180.0000771 15.1670000 2
19738 19740 19742 19744 1 180.0000771 15.1670000 2
19741 19740 19742 19743 1 180.0000771 15.1670000 2
19741 19740 19742 19744 1 180.0000771 15.1670000 2
19738 19742 19740 19741 4 180.0000771 4.6024000 2
19735 19742 19744 19745 4 180.0000771 4.6024000 2
19740 19742 19744 19745 1 180.0000771 15.1670000 2
19743 19742 19744 19745 1 180.0000771 15.1670000 2
19735 19744 19742 19740 1 180.0000771 15.1670000 2
19735 19744 19742 19743 1 180.0000771 15.1670000 2
19740 19744 19742 19743 4 180.0000771 4.6024000 2
19746 19747 19748 19749 1 180.0000771 15.1670000 2
19746 19747 19748 19750 1 180.0000771 15.1670000 2
19749 19747 19748 19750 4 180.0000771 4.6024000 2
19746 19747 19756 19748 4 180.0000771 4.6024000 2
19746 19747 19756 19754 1 180.0000771 15.1670000 2
19746 19747 19756 19757 1 180.0000771 15.1670000 2
19748 19747 19756 19754 1 180.0000771 15.1670000 2
19748 19747 19756 19757 1 180.0000771 15.1670000 2
19749 19748 19747 19756 1 180.0000771 15.1670000 2
19750 19748 19747 19756 1 180.0000771 15.1670000 2
19747 19748 19750 19751 1 180.0000771 15.1670000 2
19747 19748 19750 19752 1 180.0000771 15.1670000 2
19749 19748 19750 19751 1 180.0000771 15.1670000 2
19749 19748 19750 19752 1 180.0000771 15.1670000 2
19748 19750 19752 19753 1 180.0000771 15.1670000 2
19748 19750 19752 19754 1 180.0000771 15.1670000 2
19751 19750 19752 19753 1 180.0000771 15.1670000 2
19751 19750 19752 19754 1 180.0000771 15.1670000 2
19748 19752 19750 19751 4 180.0000771 4.6024000 2
19750 19752 19754 19755 1 180.0000771 15.1670000 2
19750 19752 19754 19756 1 180.0000771 15.1670000 2
19753 19752 19754 19755 1 180.0000771 15.1670000 2
19753 19752 19754 19756 1 180.0000771 15.1670000 2
19750 19754 19752 19753 4 180.0000771 4.6024000 2
19747 19754 19756 19757 4 180.0000771 4.6024000 2
19752 19754 19756 19757 1 180.0000771 15.1670000 2
19755 19754 19756 19757 1 180.0000771 15.1670000 2
19747 19756 19754 19752 1 180.0000771 15.1670000 2
19747 19756 19754 19755 1 180.0000771 15.1670000 2
19752 19756 19754 19755 4 180.0000771 4.6024000 2
19758 19759 19760 19761 1 180.0000771 15.1670000 2
19758 19759 19760 19762 1 180.0000771 15.1670000 2
19761 19759 19760 19762 4 180.0000771 4.6024000 2
19758 19759 19768 19760 4 180.0000771 4.6024000 2
19758 19759 19768 19766 1 180.0000771 15.1670000 2
19758 19759 19768 19769 1 180.0000771 15.1670000 2
19760 19759 19768 19766 1 180.0000771 15.1670000 2
19760 19759 19768 19769 1 180.0000771 15.1670000 2
19761 19760 19759 19768 1 180.0000771 15.1670000 2
19762 19760 19759 19768 1 180.0000771 15.1670000 2
19759 19760 19762 19763 1 180.0000771 15.1670000 2
19759 19760 19762 19764 1 180.0000771 15.1670000 2
19761 19760 19762 19763 1 180.0000771 15.1670000 2
19761 19760 19762 19764 1 180.0000771 15.1670000 2
19760 19762 19764 19765 1 180.0000771 15.1670000 2
19760 19762 19764 19766 1 180.0000771 15.1670000 2
19763 19762 19764 19765 1 180.0000771 15.1670000 2
19763 19762 19764 19766 1 180.0000771 15.1670000 2
19760 19764 19762 19763 4 180.0000771 4.6024000 2
19762 19764 19766 19767 1 180.0000771 15.1670000 2
19762 19764 19766 19768 1 180.0000771 15.1670000 2
19765 19764 19766 19767 1 180.0000771 15.1670000 2
19765 19764 19766 19768 1 180.0000771 15.1670000 2
19762 19766 19764 19765 4 180.0000771 4.6024000 2
19759 19766 19768 19769 4 180.0000771 4.6024000 2
19764 19766 19768 19769 1 180.0000771 15.1670000 2
19767 19766 19768 19769 1 180.0000771 15.1670000 2
19759 19768 19766 19764 1 180.0000771 15.1670000 2
19759 19768 19766 19767 1 180.0000771 15.1670000 2
19764 19768 19766 19767 4 180.0000771 4.6024000 2
19770 19771 19772 19773 1 180.0000771 15.1670000 2
19770 19771 19772 19774 1 180.0000771 15.1670000 2
19773 19771 19772 19774 4 180.0000771 4.6024000 2
19770 19771 19780 19772 4 180.0000771 4.6024000 2
19770 19771 19780 19778 1 180.0000771 15.1670000 2
19770 19771 19780 19781 1 180.0000771 15.1670000 2
19772 19771 19780 19778 1 180.0000771 15.1670000 2
19772 19771 19780 19781 1 180.0000771 15.1670000 2
19773 19772 19771 19780 1 180.0000771 15.1670000 2
19774 19772 19771 19780 1 180.0000771 15.1670000 2
19771 19772 19774 19775 1 180.0000771 15.1670000 2
19771 19772 19774 19776 1 180.0000771 15.1670000 2
19773 19772 19774 19775 1 180.0000771 15.1670000 2
19773 19772 19774 19776 1 180.0000771 15.1670000 2
19772 19774 19776 19777 1 180.0000771 15.1670000 2
19772 19774 19776 19778 1 180.0000771 15.1670000 2
19775 19774 19776 19777 1 180.0000771 15.1670000 2
19775 19774 19776 19778 1 180.0000771 15.1670000 2
19772 19776 19774 19775 4 180.0000771 4.6024000 2
19774 19776 19778 19779 1 180.0000771 15.1670000 2
19774 19776 19778 19780 1 180.0000771 15.1670000 2
19777 19776 19778 19779 1 180.0000771 15.1670000 2
19777 19776 19778 19780 1 180.0000771 15.1670000 2
19774 19778 19776 19777 4 180.0000771 4.6024000 2
19771 19778 19780 19781 4 180.0000771 4.6024000 2
19776 19778 19780 19781 1 180.0000771 15.1670000 2
19779 19778 19780 19781 1 180.0000771 15.1670000 2
19771 19780 19778 19776 1 180.0000771 15.1670000 2
19771 19780 19778 19779 1 180.0000771 15.1670000 2
19776 19780 19778 19779 4 180.0000771 4.6024000 2
19782 19783 19784 19785 1 180.0000771 15.1670000 2
19782 19783 19784 19786 1 180.0000771 15.1670000 2
19785 19783 19784 19786 4 180.0000771 4.6024000 2
19782 19783 19792 19784 4 180.0000771 4.6024000 2
19782 19783 19792 19790 1 180.0000771 15.1670000 2
19782 19783 19792 19793 1 180.0000771 15.1670000 2
19784 19783 19792 19790 1 180.0000771 15.1670000 2
19784 19783 19792 19793 1 180.0000771 15.1670000 2
19785 19784 19783 19792 1 180.0000771 15.1670000 2
19786 19784 19783 19792 1 180.0000771 15.1670000 2
19783 19784 19786 19787 1 180.0000771 15.1670000 2
19783 19784 19786 19788 1 180.0000771 15.1670000 2
19785 19784 19786 19787 1 180.0000771 15.1670000 2
19785 19784 19786 19788 1 180.0000771 15.1670000 2
19784 19786 19788 19789 1 180.0000771 15.1670000 2
19784 19786 19788 19790 1 180.0000771 15.1670000 2
19787 19786 19788 19789 1 180.0000771 15.1670000 2
19787 19786 19788 19790 1 180.0000771 15.1670000 2
19784 19788 19786 19787 4 180.0000771 4.6024000 2
19786 19788 19790 19791 1 180.0000771 15.1670000 2
19786 19788 19790 19792 1 180.0000771 15.1670000 2
19789 19788 19790 19791 1 180.0000771 15.1670000 2
19789 19788 19790 19792 1 180.0000771 15.1670000 2
19786 19790 19788 19789 4 180.0000771 4.6024000 2
19783 19790 19792 19793 4 180.0000771 4.6024000 2
19788 19790 19792 19793 1 180.0000771 15.1670000 2
19791 19790 19792 19793 1 180.0000771 15.1670000 2
19783 19792 19790 19788 1 180.0000771 15.1670000 2
19783 19792 19790 19791 1 180.0000771 15.1670000 2
19788 19792 19790 19791 4 180.0000771 4.6024000 2
19794 19795 19796 19797 1 180.0000771 15.1670000 2
19794 19795 19796 19798 1 180.0000771 15.1670000 2
19797 19795 19796 19798 4 180.0000771 4.6024000 2
19794 19795 19804 19796 4 180.0000771 4.6024000 2
19794 19795 19804 19802 1 180.0000771 15.1670000 2
19794 19795 19804 19805 1 180.0000771 15.1670000 2
19796 19795 19804 19802 1 180.0000771 15.1670000 2
19796 19795 19804 19805 1 180.0000771 15.1670000 2
19797 19796 19795 19804 1 180.0000771 15.1670000 2
19798 19796 19795 19804 1 180.0000771 15.1670000 2
19795 19796 19798 19799 1 180.0000771 15.1670000 2
19795 19796 19798 19800 1 180.0000771 15.1670000 2
19797 19796 19798 19799 1 180.0000771 15.1670000 2
19797 19796 19798 19800 1 180.0000771 15.1670000 2
19796 19798 19800 19801 1 180.0000771 15.1670000 2
19796 19798 19800 19802 1 180.0000771 15.1670000 2
19799 19798 19800 19801 1 180.0000771 15.1670000 2
19799 19798 19800 19802 1 180.0000771 15.1670000 2
19796 19800 19798 19799 4 180.0000771 4.6024000 2
19798 19800 19802 19803 1 180.0000771 15.1670000 2
19798 19800 19802 19804 1 180.0000771 15.1670000 2
19801 19800 19802 19803 1 180.0000771 15.1670000 2
19801 19800 19802 19804 1 180.0000771 15.1670000 2
19798 19802 19800 19801 4 180.0000771 4.6024000 2
19795 19802 19804 19805 4 180.0000771 4.6024000 2
19800 19802 19804 19805 1 180.0000771 15.1670000 2
19803 19802 19804 19805 1 180.0000771 15.1670000 2
19795 19804 19802 19800 1 180.0000771 15.1670000 2
19795 19804 19802 19803 1 180.0000771 15.1670000 2
19800 19804 19802 19803 4 180.0000771 4.6024000 2
19806 19807 19808 19809 1 180.0000771 15.1670000 2
19806 19807 19808 19810 1 180.0000771 15.1670000 2
19809 19807 19808 19810 4 180.0000771 4.6024000 2
19806 19807 19816 19808 4 180.0000771 4.6024000 2
19806 19807 19816 19814 1 180.0000771 15.1670000 2
19806 19807 19816 19817 1 180.0000771 15.1670000 2
19808 19807 19816 19814 1 180.0000771 15.1670000 2
19808 19807 19816 19817 1 180.0000771 15.1670000 2
19809 19808 19807 19816 1 180.0000771 15.1670000 2
19810 19808 19807 19816 1 180.0000771 15.1670000 2
19807 19808 19810 19811 1 180.0000771 15.1670000 2
19807 19808 19810 19812 1 180.0000771 15.1670000 2
19809 19808 19810 19811 1 180.0000771 15.1670000 2
19809 19808 19810 19812 1 180.0000771 15.1670000 2
19808 19810 19812 19813 1 180.0000771 15.1670000 2
19808 19810 19812 19814 1 180.0000771 15.1670000 2
19811 19810 19812 19813 1 180.0000771 15.1670000 2
19811 19810 19812 19814 1 180.0000771 15.1670000 2
19808 19812 19810 19811 4 180.0000771 4.6024000 2
19810 19812 19814 19815 1 180.0000771 15.1670000 2
19810 19812 19814 19816 1 180.0000771 15.1670000 2
19813 19812 19814 19815 1 180.0000771 15.1670000 2
19813 19812 19814 19816 1 180.0000771 15.1670000 2
19810 19814 19812 19813 4 180.0000771 4.6024000 2
19807 19814 19816 19817 4 180.0000771 4.6024000 2
19812 19814 19816 19817 1 180.0000771 15.1670000 2
19815 19814 19816 19817 1 180.0000771 15.1670000 2
19807 19816 19814 19812 1 180.0000771 15.1670000 2
19807 19816 19814 19815 1 180.0000771 15.1670000 2
19812 19816 19814 19815 4 180.0000771 4.6024000 2
19818 19819 19820 19821 1 180.0000771 15.1670000 2
19818 19819 19820 19822 1 180.0000771 15.1670000 2
19821 19819 19820 19822 4 180.0000771 4.6024000 2
19818 19819 19828 19820 4 180.0000771 4.6024000 2
19818 19819 19828 19826 1 180.0000771 15.1670000 2
19818 19819 19828 19829 1 180.0000771 15.1670000 2
19820 19819 19828 19826 1 180.0000771 15.1670000 2
19820 19819 19828 19829 1 180.0000771 15.1670000 2
19821 19820 19819 19828 1 180.0000771 15.1670000 2
19822 19820 19819 19828 1 180.0000771 15.1670000 2
19819 19820 19822 19823 1 180.0000771 15.1670000 2
19819 19820 19822 19824 1 180.0000771 15.1670000 2
19821 19820 19822 19823 1 180.0000771 15.1670000 2
19821 19820 19822 19824 1 180.0000771 15.1670000 2
19820 19822 19824 19825 1 180.0000771 15.1670000 2
19820 19822 19824 19826 1 180.0000771 15.1670000 2
19823 19822 19824 19825 1 180.0000771 15.1670000 2
19823 19822 19824 19826 1 180.0000771 15.1670000 2
19820 19824 19822 19823 4 180.0000771 4.6024000 2
19822 19824 19826 19827 1 180.0000771 15.1670000 2
19822 19824 19826 19828 1 180.0000771 15.1670000 2
19825 19824 19826 19827 1 180.0000771 15.1670000 2
19825 19824 19826 19828 1 180.0000771 15.1670000 2
19822 19826 19824 19825 4 180.0000771 4.6024000 2
19819 19826 19828 19829 4 180.0000771 4.6024000 2
19824 19826 19828 19829 1 180.0000771 15.1670000 2
19827 19826 19828 19829 1 180.0000771 15.1670000 2
19819 19828 19826 19824 1 180.0000771 15.1670000 2
19819 19828 19826 19827 1 180.0000771 15.1670000 2
19824 19828 19826 19827 4 180.0000771 4.6024000 2
19830 19831 19832 19833 1 180.0000771 15.1670000 2
19830 19831 19832 19834 1 180.0000771 15.1670000 2
19833 19831 19832 19834 4 180.0000771 4.6024000 2
19830 19831 19840 19832 4 180.0000771 4.6024000 2
19830 19831 19840 19838 1 180.0000771 15.1670000 2
19830 19831 19840 19841 1 180.0000771 15.1670000 2
19832 19831 19840 19838 1 180.0000771 15.1670000 2
19832 19831 19840 19841 1 180.0000771 15.1670000 2
19833 19832 19831 19840 1 180.0000771 15.1670000 2
19834 19832 19831 19840 1 180.0000771 15.1670000 2
19831 19832 19834 19835 1 180.0000771 15.1670000 2
19831 19832 19834 19836 1 180.0000771 15.1670000 2
19833 19832 19834 19835 1 180.0000771 15.1670000 2
19833 19832 19834 19836 1 180.0000771 15.1670000 2
19832 19834 19836 19837 1 180.0000771 15.1670000 2
19832 19834 19836 19838 1 180.0000771 15.1670000 2
19835 19834 19836 19837 1 180.0000771 15.1670000 2
19835 19834 19836 19838 1 180.0000771 15.1670000 2
19832 19836 19834 19835 4 180.0000771 4.6024000 2
19834 19836 19838 19839 1 180.0000771 15.1670000 2
19834 19836 19838 19840 1 180.0000771 15.1670000 2
19837 19836 19838 19839 1 180.0000771 15.1670000 2
19837 19836 19838 19840 1 180.0000771 15.1670000 2
19834 19838 19836 19837 4 180.0000771 4.6024000 2
19831 19838 19840 19841 4 180.0000771 4.6024000 2
19836 19838 19840 19841 1 180.0000771 15.1670000 2
19839 19838 19840 19841 1 180.0000771 15.1670000 2
19831 19840 19838 19836 1 180.0000771 15.1670000 2
19831 19840 19838 19839 1 180.0000771 15.1670000 2
19836 19840 19838 19839 4 180.0000771 4.6024000 2
19842 19843 19844 19845 1 180.0000771 15.1670000 2
19842 19843 19844 19846 1 180.0000771 15.1670000 2
19845 19843 19844 19846 4 180.0000771 4.6024000 2
19842 19843 19852 19844 4 180.0000771 4.6024000 2
19842 19843 19852 19850 1 180.0000771 15.1670000 2
19842 19843 19852 19853 1 180.0000771 15.1670000 2
19844 19843 19852 19850 1 180.0000771 15.1670000 2
19844 19843 19852 19853 1 180.0000771 15.1670000 2
19845 19844 19843 19852 1 180.0000771 15.1670000 2
19846 19844 19843 19852 1 180.0000771 15.1670000 2
19843 19844 19846 19847 1 180.0000771 15.1670000 2
19843 19844 19846 19848 1 180.0000771 15.1670000 2
19845 19844 19846 19847 1 180.0000771 15.1670000 2
19845 19844 19846 19848 1 180.0000771 15.1670000 2
19844 19846 19848 19849 1 180.0000771 15.1670000 2
19844 19846 19848 19850 1 180.0000771 15.1670000 2
19847 19846 19848 19849 1 180.0000771 15.1670000 2
19847 19846 19848 19850 1 180.0000771 15.1670000 2
19844 19848 19846 19847 4 180.0000771 4.6024000 2
19846 19848 19850 19851 1 180.0000771 15.1670000 2
19846 19848 19850 19852 1 180.0000771 15.1670000 2
19849 19848 19850 19851 1 180.0000771 15.1670000 2
19849 19848 19850 19852 1 180.0000771 15.1670000 2
19846 19850 19848 19849 4 180.0000771 4.6024000 2
19843 19850 19852 19853 4 180.0000771 4.6024000 2
19848 19850 19852 19853 1 180.0000771 15.1670000 2
19851 19850 19852 19853 1 180.0000771 15.1670000 2
19843 19852 19850 19848 1 180.0000771 15.1670000 2
19843 19852 19850 19851 1 180.0000771 15.1670000 2
19848 19852 19850 19851 4 180.0000771 4.6024000 2
19854 19855 19856 19857 1 180.0000771 15.1670000 2
19854 19855 19856 19858 1 180.0000771 15.1670000 2
19857 19855 19856 19858 4 180.0000771 4.6024000 2
19854 19855 19864 19856 4 180.0000771 4.6024000 2
19854 19855 19864 19862 1 180.0000771 15.1670000 2
19854 19855 19864 19865 1 180.0000771 15.1670000 2
19856 19855 19864 19862 1 180.0000771 15.1670000 2
19856 19855 19864 19865 1 180.0000771 15.1670000 2
19857 19856 19855 19864 1 180.0000771 15.1670000 2
19858 19856 19855 19864 1 180.0000771 15.1670000 2
19855 19856 19858 19859 1 180.0000771 15.1670000 2
19855 19856 19858 19860 1 180.0000771 15.1670000 2
19857 19856 19858 19859 1 180.0000771 15.1670000 2
19857 19856 19858 19860 1 180.0000771 15.1670000 2
19856 19858 19860 19861 1 180.0000771 15.1670000 2
19856 19858 19860 19862 1 180.0000771 15.1670000 2
19859 19858 19860 19861 1 180.0000771 15.1670000 2
19859 19858 19860 19862 1 180.0000771 15.1670000 2
19856 19860 19858 19859 4 180.0000771 4.6024000 2
19858 19860 19862 19863 1 180.0000771 15.1670000 2
19858 19860 19862 19864 1 180.0000771 15.1670000 2
19861 19860 19862 19863 1 180.0000771 15.1670000 2
19861 19860 19862 19864 1 180.0000771 15.1670000 2
19858 19862 19860 19861 4 180.0000771 4.6024000 2
19855 19862 19864 19865 4 180.0000771 4.6024000 2
19860 19862 19864 19865 1 180.0000771 15.1670000 2
19863 19862 19864 19865 1 180.0000771 15.1670000 2
19855 19864 19862 19860 1 180.0000771 15.1670000 2
19855 19864 19862 19863 1 180.0000771 15.1670000 2
19860 19864 19862 19863 4 180.0000771 4.6024000 2
19866 19867 19868 19869 1 180.0000771 15.1670000 2
19866 19867 19868 19870 1 180.0000771 15.1670000 2
19869 19867 19868 19870 4 180.0000771 4.6024000 2
19866 19867 19876 19868 4 180.0000771 4.6024000 2
19866 19867 19876 19874 1 180.0000771 15.1670000 2
19866 19867 19876 19877 1 180.0000771 15.1670000 2
19868 19867 19876 19874 1 180.0000771 15.1670000 2
19868 19867 19876 19877 1 180.0000771 15.1670000 2
19869 19868 19867 19876 1 180.0000771 15.1670000 2
19870 19868 19867 19876 1 180.0000771 15.1670000 2
19867 19868 19870 19871 1 180.0000771 15.1670000 2
19867 19868 19870 19872 1 180.0000771 15.1670000 2
19869 19868 19870 19871 1 180.0000771 15.1670000 2
19869 19868 19870 19872 1 180.0000771 15.1670000 2
19868 19870 19872 19873 1 180.0000771 15.1670000 2
19868 19870 19872 19874 1 180.0000771 15.1670000 2
19871 19870 19872 19873 1 180.0000771 15.1670000 2
19871 19870 19872 19874 1 180.0000771 15.1670000 2
19868 19872 19870 19871 4 180.0000771 4.6024000 2
19870 19872 19874 19875 1 180.0000771 15.1670000 2
19870 19872 19874 19876 1 180.0000771 15.1670000 2
19873 19872 19874 19875 1 180.0000771 15.1670000 2
19873 19872 19874 19876 1 180.0000771 15.1670000 2
19870 19874 19872 19873 4 180.0000771 4.6024000 2
19867 19874 19876 19877 4 180.0000771 4.6024000 2
19872 19874 19876 19877 1 180.0000771 15.1670000 2
19875 19874 19876 19877 1 180.0000771 15.1670000 2
19867 19876 19874 19872 1 180.0000771 15.1670000 2
19867 19876 19874 19875 1 180.0000771 15.1670000 2
19872 19876 19874 19875 4 180.0000771 4.6024000 2
19878 19879 19880 19881 1 180.0000771 15.1670000 2
19878 19879 19880 19882 1 180.0000771 15.1670000 2
19881 19879 19880 19882 4 180.0000771 4.6024000 2
19878 19879 19888 19880 4 180.0000771 4.6024000 2
19878 19879 19888 19886 1 180.0000771 15.1670000 2
19878 19879 19888 19889 1 180.0000771 15.1670000 2
19880 19879 19888 19886 1 180.0000771 15.1670000 2
19880 19879 19888 19889 1 180.0000771 15.1670000 2
19881 19880 19879 19888 1 180.0000771 15.1670000 2
19882 19880 19879 19888 1 180.0000771 15.1670000 2
19879 19880 19882 19883 1 180.0000771 15.1670000 2
19879 19880 19882 19884 1 180.0000771 15.1670000 2
19881 19880 19882 19883 1 180.0000771 15.1670000 2
19881 19880 19882 19884 1 180.0000771 15.1670000 2
19880 19882 19884 19885 1 180.0000771 15.1670000 2
19880 19882 19884 19886 1 180.0000771 15.1670000 2
19883 19882 19884 19885 1 180.0000771 15.1670000 2
19883 19882 19884 19886 1 180.0000771 15.1670000 2
19880 19884 19882 19883 4 180.0000771 4.6024000 2
19882 19884 19886 19887 1 180.0000771 15.1670000 2
19882 19884 19886 19888 1 180.0000771 15.1670000 2
19885 19884 19886 19887 1 180.0000771 15.1670000 2
19885 19884 19886 19888 1 180.0000771 15.1670000 2
19882 19886 19884 19885 4 180.0000771 4.6024000 2
19879 19886 19888 19889 4 180.0000771 4.6024000 2
19884 19886 19888 19889 1 180.0000771 15.1670000 2
19887 19886 19888 19889 1 180.0000771 15.1670000 2
19879 19888 19886 19884 1 180.0000771 15.1670000 2
19879 19888 19886 19887 1 180.0000771 15.1670000 2
19884 19888 19886 19887 4 180.0000771 4.6024000 2
19890 19891 19892 19893 1 180.0000771 15.1670000 2
19890 19891 19892 19894 1 180.0000771 15.1670000 2
19893 19891 19892 19894 4 180.0000771 4.6024000 2
19890 19891 19900 19892 4 180.0000771 4.6024000 2
19890 19891 19900 19898 1 180.0000771 15.1670000 2
19890 19891 19900 19901 1 180.0000771 15.1670000 2
19892 19891 19900 19898 1 180.0000771 15.1670000 2
19892 19891 19900 19901 1 180.0000771 15.1670000 2
19893 19892 19891 19900 1 180.0000771 15.1670000 2
19894 19892 19891 19900 1 180.0000771 15.1670000 2
19891 19892 19894 19895 1 180.0000771 15.1670000 2
19891 19892 19894 19896 1 180.0000771 15.1670000 2
19893 19892 19894 19895 1 180.0000771 15.1670000 2
19893 19892 19894 19896 1 180.0000771 15.1670000 2
19892 19894 19896 19897 1 180.0000771 15.1670000 2
19892 19894 19896 19898 1 180.0000771 15.1670000 2
19895 19894 19896 19897 1 180.0000771 15.1670000 2
19895 19894 19896 19898 1 180.0000771 15.1670000 2
19892 19896 19894 19895 4 180.0000771 4.6024000 2
19894 19896 19898 19899 1 180.0000771 15.1670000 2
19894 19896 19898 19900 1 180.0000771 15.1670000 2
19897 19896 19898 19899 1 180.0000771 15.1670000 2
19897 19896 19898 19900 1 180.0000771 15.1670000 2
19894 19898 19896 19897 4 180.0000771 4.6024000 2
19891 19898 19900 19901 4 180.0000771 4.6024000 2
19896 19898 19900 19901 1 180.0000771 15.1670000 2
19899 19898 19900 19901 1 180.0000771 15.1670000 2
19891 19900 19898 19896 1 180.0000771 15.1670000 2
19891 19900 19898 19899 1 180.0000771 15.1670000 2
19896 19900 19898 19899 4 180.0000771 4.6024000 2
19902 19903 19904 19905 1 180.0000771 15.1670000 2
19902 19903 19904 19906 1 180.0000771 15.1670000 2
19905 19903 19904 19906 4 180.0000771 4.6024000 2
19902 19903 19912 19904 4 180.0000771 4.6024000 2
19902 19903 19912 19910 1 180.0000771 15.1670000 2
19902 19903 19912 19913 1 180.0000771 15.1670000 2
19904 19903 19912 19910 1 180.0000771 15.1670000 2
19904 19903 19912 19913 1 180.0000771 15.1670000 2
19905 19904 19903 19912 1 180.0000771 15.1670000 2
19906 19904 19903 19912 1 180.0000771 15.1670000 2
19903 19904 19906 19907 1 180.0000771 15.1670000 2
19903 19904 19906 19908 1 180.0000771 15.1670000 2
19905 19904 19906 19907 1 180.0000771 15.1670000 2
19905 19904 19906 19908 1 180.0000771 15.1670000 2
19904 19906 19908 19909 1 180.0000771 15.1670000 2
19904 19906 19908 19910 1 180.0000771 15.1670000 2
19907 19906 19908 19909 1 180.0000771 15.1670000 2
19907 19906 19908 19910 1 180.0000771 15.1670000 2
19904 19908 19906 19907 4 180.0000771 4.6024000 2
19906 19908 19910 19911 1 180.0000771 15.1670000 2
19906 19908 19910 19912 1 180.0000771 15.1670000 2
19909 19908 19910 19911 1 180.0000771 15.1670000 2
19909 19908 19910 19912 1 180.0000771 15.1670000 2
19906 19910 19908 19909 4 180.0000771 4.6024000 2
19903 19910 19912 19913 4 180.0000771 4.6024000 2
19908 19910 19912 19913 1 180.0000771 15.1670000 2
19911 19910 19912 19913 1 180.0000771 15.1670000 2
19903 19912 19910 19908 1 180.0000771 15.1670000 2
19903 19912 19910 19911 1 180.0000771 15.1670000 2
19908 19912 19910 19911 4 180.0000771 4.6024000 2
19914 19915 19916 19917 1 180.0000771 15.1670000 2
19914 19915 19916 19918 1 180.0000771 15.1670000 2
19917 19915 19916 19918 4 180.0000771 4.6024000 2
19914 19915 19924 19916 4 180.0000771 4.6024000 2
19914 19915 19924 19922 1 180.0000771 15.1670000 2
19914 19915 19924 19925 1 180.0000771 15.1670000 2
19916 19915 19924 19922 1 180.0000771 15.1670000 2
19916 19915 19924 19925 1 180.0000771 15.1670000 2
19917 19916 19915 19924 1 180.0000771 15.1670000 2
19918 19916 19915 19924 1 180.0000771 15.1670000 2
19915 19916 19918 19919 1 180.0000771 15.1670000 2
19915 19916 19918 19920 1 180.0000771 15.1670000 2
19917 19916 19918 19919 1 180.0000771 15.1670000 2
19917 19916 19918 19920 1 180.0000771 15.1670000 2
19916 19918 19920 19921 1 180.0000771 15.1670000 2
19916 19918 19920 19922 1 180.0000771 15.1670000 2
19919 19918 19920 19921 1 180.0000771 15.1670000 2
19919 19918 19920 19922 1 180.0000771 15.1670000 2
19916 19920 19918 19919 4 180.0000771 4.6024000 2
19918 19920 19922 19923 1 180.0000771 15.1670000 2
19918 19920 19922 19924 1 180.0000771 15.1670000 2
19921 19920 19922 19923 1 180.0000771 15.1670000 2
19921 19920 19922 19924 1 180.0000771 15.1670000 2
19918 19922 19920 19921 4 180.0000771 4.6024000 2
19915 19922 19924 19925 4 180.0000771 4.6024000 2
19920 19922 19924 19925 1 180.0000771 15.1670000 2
19923 19922 19924 19925 1 180.0000771 15.1670000 2
19915 19924 19922 19920 1 180.0000771 15.1670000 2
19915 19924 19922 19923 1 180.0000771 15.1670000 2
19920 19924 19922 19923 4 180.0000771 4.6024000 2
19926 19927 19928 19929 1 180.0000771 15.1670000 2
19926 19927 19928 19930 1 180.0000771 15.1670000 2
19929 19927 19928 19930 4 180.0000771 4.6024000 2
19926 19927 19936 19928 4 180.0000771 4.6024000 2
19926 19927 19936 19934 1 180.0000771 15.1670000 2
19926 19927 19936 19937 1 180.0000771 15.1670000 2
19928 19927 19936 19934 1 180.0000771 15.1670000 2
19928 19927 19936 19937 1 180.0000771 15.1670000 2
19929 19928 19927 19936 1 180.0000771 15.1670000 2
19930 19928 19927 19936 1 180.0000771 15.1670000 2
19927 19928 19930 19931 1 180.0000771 15.1670000 2
19927 19928 19930 19932 1 180.0000771 15.1670000 2
19929 19928 19930 19931 1 180.0000771 15.1670000 2
19929 19928 19930 19932 1 180.0000771 15.1670000 2
19928 19930 19932 19933 1 180.0000771 15.1670000 2
19928 19930 19932 19934 1 180.0000771 15.1670000 2
19931 19930 19932 19933 1 180.0000771 15.1670000 2
19931 19930 19932 19934 1 180.0000771 15.1670000 2
19928 19932 19930 19931 4 180.0000771 4.6024000 2
19930 19932 19934 19935 1 180.0000771 15.1670000 2
19930 19932 19934 19936 1 180.0000771 15.1670000 2
19933 19932 19934 19935 1 180.0000771 15.1670000 2
19933 19932 19934 19936 1 180.0000771 15.1670000 2
19930 19934 19932 19933 4 180.0000771 4.6024000 2
19927 19934 19936 19937 4 180.0000771 4.6024000 2
19932 19934 19936 19937 1 180.0000771 15.1670000 2
19935 19934 19936 19937 1 180.0000771 15.1670000 2
19927 19936 19934 19932 1 180.0000771 15.1670000 2
19927 19936 19934 19935 1 180.0000771 15.1670000 2
19932 19936 19934 19935 4 180.0000771 4.6024000 2
19938 19939 19940 19941 1 180.0000771 15.1670000 2
19938 19939 19940 19942 1 180.0000771 15.1670000 2
19941 19939 19940 19942 4 180.0000771 4.6024000 2
19938 19939 19948 19940 4 180.0000771 4.6024000 2
19938 19939 19948 19946 1 180.0000771 15.1670000 2
19938 19939 19948 19949 1 180.0000771 15.1670000 2
19940 19939 19948 19946 1 180.0000771 15.1670000 2
19940 19939 19948 19949 1 180.0000771 15.1670000 2
19941 19940 19939 19948 1 180.0000771 15.1670000 2
19942 19940 19939 19948 1 180.0000771 15.1670000 2
19939 19940 19942 19943 1 180.0000771 15.1670000 2
19939 19940 19942 19944 1 180.0000771 15.1670000 2
19941 19940 19942 19943 1 180.0000771 15.1670000 2
19941 19940 19942 19944 1 180.0000771 15.1670000 2
19940 19942 19944 19945 1 180.0000771 15.1670000 2
19940 19942 19944 19946 1 180.0000771 15.1670000 2
19943 19942 19944 19945 1 180.0000771 15.1670000 2
19943 19942 19944 19946 1 180.0000771 15.1670000 2
19940 19944 19942 19943 4 180.0000771 4.6024000 2
19942 19944 19946 19947 1 180.0000771 15.1670000 2
19942 19944 19946 19948 1 180.0000771 15.1670000 2
19945 19944 19946 19947 1 180.0000771 15.1670000 2
19945 19944 19946 19948 1 180.0000771 15.1670000 2
19942 19946 19944 19945 4 180.0000771 4.6024000 2
19939 19946 19948 19949 4 180.0000771 4.6024000 2
19944 19946 19948 19949 1 180.0000771 15.1670000 2
19947 19946 19948 19949 1 180.0000771 15.1670000 2
19939 19948 19946 19944 1 180.0000771 15.1670000 2
19939 19948 19946 19947 1 180.0000771 15.1670000 2
19944 19948 19946 19947 4 180.0000771 4.6024000 2
19950 19951 19952 19953 1 180.0000771 15.1670000 2
19950 19951 19952 19954 1 180.0000771 15.1670000 2
19953 19951 19952 19954 4 180.0000771 4.6024000 2
19950 19951 19960 19952 4 180.0000771 4.6024000 2
19950 19951 19960 19958 1 180.0000771 15.1670000 2
19950 19951 19960 19961 1 180.0000771 15.1670000 2
19952 19951 19960 19958 1 180.0000771 15.1670000 2
19952 19951 19960 19961 1 180.0000771 15.1670000 2
19953 19952 19951 19960 1 180.0000771 15.1670000 2
19954 19952 19951 19960 1 180.0000771 15.1670000 2
19951 19952 19954 19955 1 180.0000771 15.1670000 2
19951 19952 19954 19956 1 180.0000771 15.1670000 2
19953 19952 19954 19955 1 180.0000771 15.1670000 2
19953 19952 19954 19956 1 180.0000771 15.1670000 2
19952 19954 19956 19957 1 180.0000771 15.1670000 2
19952 19954 19956 19958 1 180.0000771 15.1670000 2
19955 19954 19956 19957 1 180.0000771 15.1670000 2
19955 19954 19956 19958 1 180.0000771 15.1670000 2
19952 19956 19954 19955 4 180.0000771 4.6024000 2
19954 19956 19958 19959 1 180.0000771 15.1670000 2
19954 19956 19958 19960 1 180.0000771 15.1670000 2
19957 19956 19958 19959 1 180.0000771 15.1670000 2
19957 19956 19958 19960 1 180.0000771 15.1670000 2
19954 19958 19956 19957 4 180.0000771 4.6024000 2
19951 19958 19960 19961 4 180.0000771 4.6024000 2
19956 19958 19960 19961 1 180.0000771 15.1670000 2
19959 19958 19960 19961 1 180.0000771 15.1670000 2
19951 19960 19958 19956 1 180.0000771 15.1670000 2
19951 19960 19958 19959 1 180.0000771 15.1670000 2
19956 19960 19958 19959 4 180.0000771 4.6024000 2
19962 19963 19964 19965 1 180.0000771 15.1670000 2
19962 19963 19964 19966 1 180.0000771 15.1670000 2
19965 19963 19964 19966 4 180.0000771 4.6024000 2
19962 19963 19972 19964 4 180.0000771 4.6024000 2
19962 19963 19972 19970 1 180.0000771 15.1670000 2
19962 19963 19972 19973 1 180.0000771 15.1670000 2
19964 19963 19972 19970 1 180.0000771 15.1670000 2
19964 19963 19972 19973 1 180.0000771 15.1670000 2
19965 19964 19963 19972 1 180.0000771 15.1670000 2
19966 19964 19963 19972 1 180.0000771 15.1670000 2
19963 19964 19966 19967 1 180.0000771 15.1670000 2
19963 19964 19966 19968 1 180.0000771 15.1670000 2
19965 19964 19966 19967 1 180.0000771 15.1670000 2
19965 19964 19966 19968 1 180.0000771 15.1670000 2
19964 19966 19968 19969 1 180.0000771 15.1670000 2
19964 19966 19968 19970 1 180.0000771 15.1670000 2
19967 19966 19968 19969 1 180.0000771 15.1670000 2
19967 19966 19968 19970 1 180.0000771 15.1670000 2
19964 19968 19966 19967 4 180.0000771 4.6024000 2
19966 19968 19970 19971 1 180.0000771 15.1670000 2
19966 19968 19970 19972 1 180.0000771 15.1670000 2
19969 19968 19970 19971 1 180.0000771 15.1670000 2
19969 19968 19970 19972 1 180.0000771 15.1670000 2
19966 19970 19968 19969 4 180.0000771 4.6024000 2
19963 19970 19972 19973 4 180.0000771 4.6024000 2
19968 19970 19972 19973 1 180.0000771 15.1670000 2
19971 19970 19972 19973 1 180.0000771 15.1670000 2
19963 19972 19970 19968 1 180.0000771 15.1670000 2
19963 19972 19970 19971 1 180.0000771 15.1670000 2
19968 19972 19970 19971 4 180.0000771 4.6024000 2
19974 19975 19976 19977 1 180.0000771 15.1670000 2
19974 19975 19976 19978 1 180.0000771 15.1670000 2
19977 19975 19976 19978 4 180.0000771 4.6024000 2
19974 19975 19984 19976 4 180.0000771 4.6024000 2
19974 19975 19984 19982 1 180.0000771 15.1670000 2
19974 19975 19984 19985 1 180.0000771 15.1670000 2
19976 19975 19984 19982 1 180.0000771 15.1670000 2
19976 19975 19984 19985 1 180.0000771 15.1670000 2
19977 19976 19975 19984 1 180.0000771 15.1670000 2
19978 19976 19975 19984 1 180.0000771 15.1670000 2
19975 19976 19978 19979 1 180.0000771 15.1670000 2
19975 19976 19978 19980 1 180.0000771 15.1670000 2
19977 19976 19978 19979 1 180.0000771 15.1670000 2
19977 19976 19978 19980 1 180.0000771 15.1670000 2
19976 19978 19980 19981 1 180.0000771 15.1670000 2
19976 19978 19980 19982 1 180.0000771 15.1670000 2
19979 19978 19980 19981 1 180.0000771 15.1670000 2
19979 19978 19980 19982 1 180.0000771 15.1670000 2
19976 19980 19978 19979 4 180.0000771 4.6024000 2
19978 19980 19982 19983 1 180.0000771 15.1670000 2
19978 19980 19982 19984 1 180.0000771 15.1670000 2
19981 19980 19982 19983 1 180.0000771 15.1670000 2
19981 19980 19982 19984 1 180.0000771 15.1670000 2
19978 19982 19980 19981 4 180.0000771 4.6024000 2
19975 19982 19984 19985 4 180.0000771 4.6024000 2
19980 19982 19984 19985 1 180.0000771 15.1670000 2
19983 19982 19984 19985 1 180.0000771 15.1670000 2
19975 19984 19982 19980 1 180.0000771 15.1670000 2
19975 19984 19982 19983 1 180.0000771 15.1670000 2
19980 19984 19982 19983 4 180.0000771 4.6024000 2
19986 19987 19988 19989 1 180.0000771 15.1670000 2
19986 19987 19988 19990 1 180.0000771 15.1670000 2
19989 19987 19988 19990 4 180.0000771 4.6024000 2
19986 19987 19996 19988 4 180.0000771 4.6024000 2
19986 19987 19996 19994 1 180.0000771 15.1670000 2
19986 19987 19996 19997 1 180.0000771 15.1670000 2
19988 19987 19996 19994 1 180.0000771 15.1670000 2
19988 19987 19996 19997 1 180.0000771 15.1670000 2
19989 19988 19987 19996 1 180.0000771 15.1670000 2
19990 19988 19987 19996 1 180.0000771 15.1670000 2
19987 19988 19990 19991 1 180.0000771 15.1670000 2
19987 19988 19990 19992 1 180.0000771 15.1670000 2
19989 19988 19990 19991 1 180.0000771 15.1670000 2
19989 19988 19990 19992 1 180.0000771 15.1670000 2
19988 19990 19992 19993 1 180.0000771 15.1670000 2
19988 19990 19992 19994 1 180.0000771 15.1670000 2
19991 19990 19992 19993 1 180.0000771 15.1670000 2
19991 19990 19992 19994 1 180.0000771 15.1670000 2
19988 19992 19990 19991 4 180.0000771 4.6024000 2
19990 19992 19994 19995 1 180.0000771 15.1670000 2
19990 19992 19994 19996 1 180.0000771 15.1670000 2
19993 19992 19994 19995 1 180.0000771 15.1670000 2
19993 19992 19994 19996 1 180.0000771 15.1670000 2
19990 19994 19992 19993 4 180.0000771 4.6024000 2
19987 19994 19996 19997 4 180.0000771 4.6024000 2
19992 19994 19996 19997 1 180.0000771 15.1670000 2
19995 19994 19996 19997 1 180.0000771 15.1670000 2
19987 19996 19994 19992 1 180.0000771 15.1670000 2
19987 19996 19994 19995 1 180.0000771 15.1670000 2
19992 19996 19994 19995 4 180.0000771 4.6024000 2
19998 19999 20000 20001 1 180.0000771 15.1670000 2
19998 19999 20000 20002 1 180.0000771 15.1670000 2
20001 19999 20000 20002 4 180.0000771 4.6024000 2
19998 19999 20008 20000 4 180.0000771 4.6024000 2
19998 19999 20008 20006 1 180.0000771 15.1670000 2
19998 19999 20008 20009 1 180.0000771 15.1670000 2
20000 19999 20008 20006 1 180.0000771 15.1670000 2
20000 19999 20008 20009 1 180.0000771 15.1670000 2
20001 20000 19999 20008 1 180.0000771 15.1670000 2
20002 20000 19999 20008 1 180.0000771 15.1670000 2
19999 20000 20002 20003 1 180.0000771 15.1670000 2
19999 20000 20002 20004 1 180.0000771 15.1670000 2
20001 20000 20002 20003 1 180.0000771 15.1670000 2
20001 20000 20002 20004 1 180.0000771 15.1670000 2
20000 20002 20004 20005 1 180.0000771 15.1670000 2
20000 20002 20004 20006 1 180.0000771 15.1670000 2
20003 20002 20004 20005 1 180.0000771 15.1670000 2
20003 20002 20004 20006 1 180.0000771 15.1670000 2
20000 20004 20002 20003 4 180.0000771 4.6024000 2
20002 20004 20006 20007 1 180.0000771 15.1670000 2
20002 20004 20006 20008 1 180.0000771 15.1670000 2
20005 20004 20006 20007 1 180.0000771 15.1670000 2
20005 20004 20006 20008 1 180.0000771 15.1670000 2
20002 20006 20004 20005 4 180.0000771 4.6024000 2
19999 20006 20008 20009 4 180.0000771 4.6024000 2
20004 20006 20008 20009 1 180.0000771 15.1670000 2
20007 20006 20008 20009 1 180.0000771 15.1670000 2
19999 20008 20006 20004 1 180.0000771 15.1670000 2
19999 20008 20006 20007 1 180.0000771 15.1670000 2
20004 20008 20006 20007 4 180.0000771 4.6024000 2
20010 20011 20012 20013 1 180.0000771 15.1670000 2
20010 20011 20012 20014 1 180.0000771 15.1670000 2
20013 20011 20012 20014 4 180.0000771 4.6024000 2
20010 20011 20020 20012 4 180.0000771 4.6024000 2
20010 20011 20020 20018 1 180.0000771 15.1670000 2
20010 20011 20020 20021 1 180.0000771 15.1670000 2
20012 20011 20020 20018 1 180.0000771 15.1670000 2
20012 20011 20020 20021 1 180.0000771 15.1670000 2
20013 20012 20011 20020 1 180.0000771 15.1670000 2
20014 20012 20011 20020 1 180.0000771 15.1670000 2
20011 20012 20014 20015 1 180.0000771 15.1670000 2
20011 20012 20014 20016 1 180.0000771 15.1670000 2
20013 20012 20014 20015 1 180.0000771 15.1670000 2
20013 20012 20014 20016 1 180.0000771 15.1670000 2
20012 20014 20016 20017 1 180.0000771 15.1670000 2
20012 20014 20016 20018 1 180.0000771 15.1670000 2
20015 20014 20016 20017 1 180.0000771 15.1670000 2
20015 20014 20016 20018 1 180.0000771 15.1670000 2
20012 20016 20014 20015 4 180.0000771 4.6024000 2
20014 20016 20018 20019 1 180.0000771 15.1670000 2
20014 20016 20018 20020 1 180.0000771 15.1670000 2
20017 20016 20018 20019 1 180.0000771 15.1670000 2
20017 20016 20018 20020 1 180.0000771 15.1670000 2
20014 20018 20016 20017 4 180.0000771 4.6024000 2
20011 20018 20020 20021 4 180.0000771 4.6024000 2
20016 20018 20020 20021 1 180.0000771 15.1670000 2
20019 20018 20020 20021 1 180.0000771 15.1670000 2
20011 20020 20018 20016 1 180.0000771 15.1670000 2
20011 20020 20018 20019 1 180.0000771 15.1670000 2
20016 20020 20018 20019 4 180.0000771 4.6024000 2
20022 20023 20024 20025 1 180.0000771 15.1670000 2
20022 20023 20024 20026 1 180.0000771 15.1670000 2
20025 20023 20024 20026 4 180.0000771 4.6024000 2
20022 20023 20032 20024 4 180.0000771 4.6024000 2
20022 20023 20032 20030 1 180.0000771 15.1670000 2
20022 20023 20032 20033 1 180.0000771 15.1670000 2
20024 20023 20032 20030 1 180.0000771 15.1670000 2
20024 20023 20032 20033 1 180.0000771 15.1670000 2
20025 20024 20023 20032 1 180.0000771 15.1670000 2
20026 20024 20023 20032 1 180.0000771 15.1670000 2
20023 20024 20026 20027 1 180.0000771 15.1670000 2
20023 20024 20026 20028 1 180.0000771 15.1670000 2
20025 20024 20026 20027 1 180.0000771 15.1670000 2
20025 20024 20026 20028 1 180.0000771 15.1670000 2
20024 20026 20028 20029 1 180.0000771 15.1670000 2
20024 20026 20028 20030 1 180.0000771 15.1670000 2
20027 20026 20028 20029 1 180.0000771 15.1670000 2
20027 20026 20028 20030 1 180.0000771 15.1670000 2
20024 20028 20026 20027 4 180.0000771 4.6024000 2
20026 20028 20030 20031 1 180.0000771 15.1670000 2
20026 20028 20030 20032 1 180.0000771 15.1670000 2
20029 20028 20030 20031 1 180.0000771 15.1670000 2
20029 20028 20030 20032 1 180.0000771 15.1670000 2
20026 20030 20028 20029 4 180.0000771 4.6024000 2
20023 20030 20032 20033 4 180.0000771 4.6024000 2
20028 20030 20032 20033 1 180.0000771 15.1670000 2
20031 20030 20032 20033 1 180.0000771 15.1670000 2
20023 20032 20030 20028 1 180.0000771 15.1670000 2
20023 20032 20030 20031 1 180.0000771 15.1670000 2
20028 20032 20030 20031 4 180.0000771 4.6024000 2
20034 20035 20036 20037 1 180.0000771 15.1670000 2
20034 20035 20036 20038 1 180.0000771 15.1670000 2
20037 20035 20036 20038 4 180.0000771 4.6024000 2
20034 20035 20044 20036 4 180.0000771 4.6024000 2
20034 20035 20044 20042 1 180.0000771 15.1670000 2
20034 20035 20044 20045 1 180.0000771 15.1670000 2
20036 20035 20044 20042 1 180.0000771 15.1670000 2
20036 20035 20044 20045 1 180.0000771 15.1670000 2
20037 20036 20035 20044 1 180.0000771 15.1670000 2
20038 20036 20035 20044 1 180.0000771 15.1670000 2
20035 20036 20038 20039 1 180.0000771 15.1670000 2
20035 20036 20038 20040 1 180.0000771 15.1670000 2
20037 20036 20038 20039 1 180.0000771 15.1670000 2
20037 20036 20038 20040 1 180.0000771 15.1670000 2
20036 20038 20040 20041 1 180.0000771 15.1670000 2
20036 20038 20040 20042 1 180.0000771 15.1670000 2
20039 20038 20040 20041 1 180.0000771 15.1670000 2
20039 20038 20040 20042 1 180.0000771 15.1670000 2
20036 20040 20038 20039 4 180.0000771 4.6024000 2
20038 20040 20042 20043 1 180.0000771 15.1670000 2
20038 20040 20042 20044 1 180.0000771 15.1670000 2
20041 20040 20042 20043 1 180.0000771 15.1670000 2
20041 20040 20042 20044 1 180.0000771 15.1670000 2
20038 20042 20040 20041 4 180.0000771 4.6024000 2
20035 20042 20044 20045 4 180.0000771 4.6024000 2
20040 20042 20044 20045 1 180.0000771 15.1670000 2
20043 20042 20044 20045 1 180.0000771 15.1670000 2
20035 20044 20042 20040 1 180.0000771 15.1670000 2
20035 20044 20042 20043 1 180.0000771 15.1670000 2
20040 20044 20042 20043 4 180.0000771 4.6024000 2
20046 20047 20048 20049 1 180.0000771 15.1670000 2
20046 20047 20048 20050 1 180.0000771 15.1670000 2
20049 20047 20048 20050 4 180.0000771 4.6024000 2
20046 20047 20056 20048 4 180.0000771 4.6024000 2
20046 20047 20056 20054 1 180.0000771 15.1670000 2
20046 20047 20056 20057 1 180.0000771 15.1670000 2
20048 20047 20056 20054 1 180.0000771 15.1670000 2
20048 20047 20056 20057 1 180.0000771 15.1670000 2
20049 20048 20047 20056 1 180.0000771 15.1670000 2
20050 20048 20047 20056 1 180.0000771 15.1670000 2
20047 20048 20050 20051 1 180.0000771 15.1670000 2
20047 20048 20050 20052 1 180.0000771 15.1670000 2
20049 20048 20050 20051 1 180.0000771 15.1670000 2
20049 20048 20050 20052 1 180.0000771 15.1670000 2
20048 20050 20052 20053 1 180.0000771 15.1670000 2
20048 20050 20052 20054 1 180.0000771 15.1670000 2
20051 20050 20052 20053 1 180.0000771 15.1670000 2
20051 20050 20052 20054 1 180.0000771 15.1670000 2
20048 20052 20050 20051 4 180.0000771 4.6024000 2
20050 20052 20054 20055 1 180.0000771 15.1670000 2
20050 20052 20054 20056 1 180.0000771 15.1670000 2
20053 20052 20054 20055 1 180.0000771 15.1670000 2
20053 20052 20054 20056 1 180.0000771 15.1670000 2
20050 20054 20052 20053 4 180.0000771 4.6024000 2
20047 20054 20056 20057 4 180.0000771 4.6024000 2
20052 20054 20056 20057 1 180.0000771 15.1670000 2
20055 20054 20056 20057 1 180.0000771 15.1670000 2
20047 20056 20054 20052 1 180.0000771 15.1670000 2
20047 20056 20054 20055 1 180.0000771 15.1670000 2
20052 20056 20054 20055 4 180.0000771 4.6024000 2
20058 20059 20060 20061 1 180.0000771 15.1670000 2
20058 20059 20060 20062 1 180.0000771 15.1670000 2
20061 20059 20060 20062 4 180.0000771 4.6024000 2
20058 20059 20068 20060 4 180.0000771 4.6024000 2
20058 20059 20068 20066 1 180.0000771 15.1670000 2
20058 20059 20068 20069 1 180.0000771 15.1670000 2
20060 20059 20068 20066 1 180.0000771 15.1670000 2
20060 20059 20068 20069 1 180.0000771 15.1670000 2
20061 20060 20059 20068 1 180.0000771 15.1670000 2
20062 20060 20059 20068 1 180.0000771 15.1670000 2
20059 20060 20062 20063 1 180.0000771 15.1670000 2
20059 20060 20062 20064 1 180.0000771 15.1670000 2
20061 20060 20062 20063 1 180.0000771 15.1670000 2
20061 20060 20062 20064 1 180.0000771 15.1670000 2
20060 20062 20064 20065 1 180.0000771 15.1670000 2
20060 20062 20064 20066 1 180.0000771 15.1670000 2
20063 20062 20064 20065 1 180.0000771 15.1670000 2
20063 20062 20064 20066 1 180.0000771 15.1670000 2
20060 20064 20062 20063 4 180.0000771 4.6024000 2
20062 20064 20066 20067 1 180.0000771 15.1670000 2
20062 20064 20066 20068 1 180.0000771 15.1670000 2
20065 20064 20066 20067 1 180.0000771 15.1670000 2
20065 20064 20066 20068 1 180.0000771 15.1670000 2
20062 20066 20064 20065 4 180.0000771 4.6024000 2
20059 20066 20068 20069 4 180.0000771 4.6024000 2
20064 20066 20068 20069 1 180.0000771 15.1670000 2
20067 20066 20068 20069 1 180.0000771 15.1670000 2
20059 20068 20066 20064 1 180.0000771 15.1670000 2
20059 20068 20066 20067 1 180.0000771 15.1670000 2
20064 20068 20066 20067 4 180.0000771 4.6024000 2
20070 20071 20072 20073 1 180.0000771 15.1670000 2
20070 20071 20072 20074 1 180.0000771 15.1670000 2
20073 20071 20072 20074 4 180.0000771 4.6024000 2
20070 20071 20080 20072 4 180.0000771 4.6024000 2
20070 20071 20080 20078 1 180.0000771 15.1670000 2
20070 20071 20080 20081 1 180.0000771 15.1670000 2
20072 20071 20080 20078 1 180.0000771 15.1670000 2
20072 20071 20080 20081 1 180.0000771 15.1670000 2
20073 20072 20071 20080 1 180.0000771 15.1670000 2
20074 20072 20071 20080 1 180.0000771 15.1670000 2
20071 20072 20074 20075 1 180.0000771 15.1670000 2
20071 20072 20074 20076 1 180.0000771 15.1670000 2
20073 20072 20074 20075 1 180.0000771 15.1670000 2
20073 20072 20074 20076 1 180.0000771 15.1670000 2
20072 20074 20076 20077 1 180.0000771 15.1670000 2
20072 20074 20076 20078 1 180.0000771 15.1670000 2
20075 20074 20076 20077 1 180.0000771 15.1670000 2
20075 20074 20076 20078 1 180.0000771 15.1670000 2
20072 20076 20074 20075 4 180.0000771 4.6024000 2
20074 20076 20078 20079 1 180.0000771 15.1670000 2
20074 20076 20078 20080 1 180.0000771 15.1670000 2
20077 20076 20078 20079 1 180.0000771 15.1670000 2
20077 20076 20078 20080 1 180.0000771 15.1670000 2
20074 20078 20076 20077 4 180.0000771 4.6024000 2
20071 20078 20080 20081 4 180.0000771 4.6024000 2
20076 20078 20080 20081 1 180.0000771 15.1670000 2
20079 20078 20080 20081 1 180.0000771 15.1670000 2
20071 20080 20078 20076 1 180.0000771 15.1670000 2
20071 20080 20078 20079 1 180.0000771 15.1670000 2
20076 20080 20078 20079 4 180.0000771 4.6024000 2
20082 20083 20084 20085 1 180.0000771 15.1670000 2
20082 20083 20084 20086 1 180.0000771 15.1670000 2
20085 20083 20084 20086 4 180.0000771 4.6024000 2
20082 20083 20092 20084 4 180.0000771 4.6024000 2
20082 20083 20092 20090 1 180.0000771 15.1670000 2
20082 20083 20092 20093 1 180.0000771 15.1670000 2
20084 20083 20092 20090 1 180.0000771 15.1670000 2
20084 20083 20092 20093 1 180.0000771 15.1670000 2
20085 20084 20083 20092 1 180.0000771 15.1670000 2
20086 20084 20083 20092 1 180.0000771 15.1670000 2
20083 20084 20086 20087 1 180.0000771 15.1670000 2
20083 20084 20086 20088 1 180.0000771 15.1670000 2
20085 20084 20086 20087 1 180.0000771 15.1670000 2
20085 20084 20086 20088 1 180.0000771 15.1670000 2
20084 20086 20088 20089 1 180.0000771 15.1670000 2
20084 20086 20088 20090 1 180.0000771 15.1670000 2
20087 20086 20088 20089 1 180.0000771 15.1670000 2
20087 20086 20088 20090 1 180.0000771 15.1670000 2
20084 20088 20086 20087 4 180.0000771 4.6024000 2
20086 20088 20090 20091 1 180.0000771 15.1670000 2
20086 20088 20090 20092 1 180.0000771 15.1670000 2
20089 20088 20090 20091 1 180.0000771 15.1670000 2
20089 20088 20090 20092 1 180.0000771 15.1670000 2
20086 20090 20088 20089 4 180.0000771 4.6024000 2
20083 20090 20092 20093 4 180.0000771 4.6024000 2
20088 20090 20092 20093 1 180.0000771 15.1670000 2
20091 20090 20092 20093 1 180.0000771 15.1670000 2
20083 20092 20090 20088 1 180.0000771 15.1670000 2
20083 20092 20090 20091 1 180.0000771 15.1670000 2
20088 20092 20090 20091 4 180.0000771 4.6024000 2
20094 20095 20096 20097 1 180.0000771 15.1670000 2
20094 20095 20096 20098 1 180.0000771 15.1670000 2
20097 20095 20096 20098 4 180.0000771 4.6024000 2
20094 20095 20104 20096 4 180.0000771 4.6024000 2
20094 20095 20104 20102 1 180.0000771 15.1670000 2
20094 20095 20104 20105 1 180.0000771 15.1670000 2
20096 20095 20104 20102 1 180.0000771 15.1670000 2
20096 20095 20104 20105 1 180.0000771 15.1670000 2
20097 20096 20095 20104 1 180.0000771 15.1670000 2
20098 20096 20095 20104 1 180.0000771 15.1670000 2
20095 20096 20098 20099 1 180.0000771 15.1670000 2
20095 20096 20098 20100 1 180.0000771 15.1670000 2
20097 20096 20098 20099 1 180.0000771 15.1670000 2
20097 20096 20098 20100 1 180.0000771 15.1670000 2
20096 20098 20100 20101 1 180.0000771 15.1670000 2
20096 20098 20100 20102 1 180.0000771 15.1670000 2
20099 20098 20100 20101 1 180.0000771 15.1670000 2
20099 20098 20100 20102 1 180.0000771 15.1670000 2
20096 20100 20098 20099 4 180.0000771 4.6024000 2
20098 20100 20102 20103 1 180.0000771 15.1670000 2
20098 20100 20102 20104 1 180.0000771 15.1670000 2
20101 20100 20102 20103 1 180.0000771 15.1670000 2
20101 20100 20102 20104 1 180.0000771 15.1670000 2
20098 20102 20100 20101 4 180.0000771 4.6024000 2
20095 20102 20104 20105 4 180.0000771 4.6024000 2
20100 20102 20104 20105 1 180.0000771 15.1670000 2
20103 20102 20104 20105 1 180.0000771 15.1670000 2
20095 20104 20102 20100 1 180.0000771 15.1670000 2
20095 20104 20102 20103 1 180.0000771 15.1670000 2
20100 20104 20102 20103 4 180.0000771 4.6024000 2
20106 20107 20108 20109 1 180.0000771 15.1670000 2
20106 20107 20108 20110 1 180.0000771 15.1670000 2
20109 20107 20108 20110 4 180.0000771 4.6024000 2
20106 20107 20116 20108 4 180.0000771 4.6024000 2
20106 20107 20116 20114 1 180.0000771 15.1670000 2
20106 20107 20116 20117 1 180.0000771 15.1670000 2
20108 20107 20116 20114 1 180.0000771 15.1670000 2
20108 20107 20116 20117 1 180.0000771 15.1670000 2
20109 20108 20107 20116 1 180.0000771 15.1670000 2
20110 20108 20107 20116 1 180.0000771 15.1670000 2
20107 20108 20110 20111 1 180.0000771 15.1670000 2
20107 20108 20110 20112 1 180.0000771 15.1670000 2
20109 20108 20110 20111 1 180.0000771 15.1670000 2
20109 20108 20110 20112 1 180.0000771 15.1670000 2
20108 20110 20112 20113 1 180.0000771 15.1670000 2
20108 20110 20112 20114 1 180.0000771 15.1670000 2
20111 20110 20112 20113 1 180.0000771 15.1670000 2
20111 20110 20112 20114 1 180.0000771 15.1670000 2
20108 20112 20110 20111 4 180.0000771 4.6024000 2
20110 20112 20114 20115 1 180.0000771 15.1670000 2
20110 20112 20114 20116 1 180.0000771 15.1670000 2
20113 20112 20114 20115 1 180.0000771 15.1670000 2
20113 20112 20114 20116 1 180.0000771 15.1670000 2
20110 20114 20112 20113 4 180.0000771 4.6024000 2
20107 20114 20116 20117 4 180.0000771 4.6024000 2
20112 20114 20116 20117 1 180.0000771 15.1670000 2
20115 20114 20116 20117 1 180.0000771 15.1670000 2
20107 20116 20114 20112 1 180.0000771 15.1670000 2
20107 20116 20114 20115 1 180.0000771 15.1670000 2
20112 20116 20114 20115 4 180.0000771 4.6024000 2
20118 20119 20120 20121 1 180.0000771 15.1670000 2
20118 20119 20120 20122 1 180.0000771 15.1670000 2
20121 20119 20120 20122 4 180.0000771 4.6024000 2
20118 20119 20128 20120 4 180.0000771 4.6024000 2
20118 20119 20128 20126 1 180.0000771 15.1670000 2
20118 20119 20128 20129 1 180.0000771 15.1670000 2
20120 20119 20128 20126 1 180.0000771 15.1670000 2
20120 20119 20128 20129 1 180.0000771 15.1670000 2
20121 20120 20119 20128 1 180.0000771 15.1670000 2
20122 20120 20119 20128 1 180.0000771 15.1670000 2
20119 20120 20122 20123 1 180.0000771 15.1670000 2
20119 20120 20122 20124 1 180.0000771 15.1670000 2
20121 20120 20122 20123 1 180.0000771 15.1670000 2
20121 20120 20122 20124 1 180.0000771 15.1670000 2
20120 20122 20124 20125 1 180.0000771 15.1670000 2
20120 20122 20124 20126 1 180.0000771 15.1670000 2
20123 20122 20124 20125 1 180.0000771 15.1670000 2
20123 20122 20124 20126 1 180.0000771 15.1670000 2
20120 20124 20122 20123 4 180.0000771 4.6024000 2
20122 20124 20126 20127 1 180.0000771 15.1670000 2
20122 20124 20126 20128 1 180.0000771 15.1670000 2
20125 20124 20126 20127 1 180.0000771 15.1670000 2
20125 20124 20126 20128 1 180.0000771 15.1670000 2
20122 20126 20124 20125 4 180.0000771 4.6024000 2
20119 20126 20128 20129 4 180.0000771 4.6024000 2
20124 20126 20128 20129 1 180.0000771 15.1670000 2
20127 20126 20128 20129 1 180.0000771 15.1670000 2
20119 20128 20126 20124 1 180.0000771 15.1670000 2
20119 20128 20126 20127 1 180.0000771 15.1670000 2
20124 20128 20126 20127 4 180.0000771 4.6024000 2
20130 20131 20132 20133 1 180.0000771 15.1670000 2
20130 20131 20132 20134 1 180.0000771 15.1670000 2
20133 20131 20132 20134 4 180.0000771 4.6024000 2
20130 20131 20140 20132 4 180.0000771 4.6024000 2
20130 20131 20140 20138 1 180.0000771 15.1670000 2
20130 20131 20140 20141 1 180.0000771 15.1670000 2
20132 20131 20140 20138 1 180.0000771 15.1670000 2
20132 20131 20140 20141 1 180.0000771 15.1670000 2
20133 20132 20131 20140 1 180.0000771 15.1670000 2
20134 20132 20131 20140 1 180.0000771 15.1670000 2
20131 20132 20134 20135 1 180.0000771 15.1670000 2
20131 20132 20134 20136 1 180.0000771 15.1670000 2
20133 20132 20134 20135 1 180.0000771 15.1670000 2
20133 20132 20134 20136 1 180.0000771 15.1670000 2
20132 20134 20136 20137 1 180.0000771 15.1670000 2
20132 20134 20136 20138 1 180.0000771 15.1670000 2
20135 20134 20136 20137 1 180.0000771 15.1670000 2
20135 20134 20136 20138 1 180.0000771 15.1670000 2
20132 20136 20134 20135 4 180.0000771 4.6024000 2
20134 20136 20138 20139 1 180.0000771 15.1670000 2
20134 20136 20138 20140 1 180.0000771 15.1670000 2
20137 20136 20138 20139 1 180.0000771 15.1670000 2
20137 20136 20138 20140 1 180.0000771 15.1670000 2
20134 20138 20136 20137 4 180.0000771 4.6024000 2
20131 20138 20140 20141 4 180.0000771 4.6024000 2
20136 20138 20140 20141 1 180.0000771 15.1670000 2
20139 20138 20140 20141 1 180.0000771 15.1670000 2
20131 20140 20138 20136 1 180.0000771 15.1670000 2
20131 20140 20138 20139 1 180.0000771 15.1670000 2
20136 20140 20138 20139 4 180.0000771 4.6024000 2
20142 20143 20144 20145 1 180.0000771 15.1670000 2
20142 20143 20144 20146 1 180.0000771 15.1670000 2
20145 20143 20144 20146 4 180.0000771 4.6024000 2
20142 20143 20152 20144 4 180.0000771 4.6024000 2
20142 20143 20152 20150 1 180.0000771 15.1670000 2
20142 20143 20152 20153 1 180.0000771 15.1670000 2
20144 20143 20152 20150 1 180.0000771 15.1670000 2
20144 20143 20152 20153 1 180.0000771 15.1670000 2
20145 20144 20143 20152 1 180.0000771 15.1670000 2
20146 20144 20143 20152 1 180.0000771 15.1670000 2
20143 20144 20146 20147 1 180.0000771 15.1670000 2
20143 20144 20146 20148 1 180.0000771 15.1670000 2
20145 20144 20146 20147 1 180.0000771 15.1670000 2
20145 20144 20146 20148 1 180.0000771 15.1670000 2
20144 20146 20148 20149 1 180.0000771 15.1670000 2
20144 20146 20148 20150 1 180.0000771 15.1670000 2
20147 20146 20148 20149 1 180.0000771 15.1670000 2
20147 20146 20148 20150 1 180.0000771 15.1670000 2
20144 20148 20146 20147 4 180.0000771 4.6024000 2
20146 20148 20150 20151 1 180.0000771 15.1670000 2
20146 20148 20150 20152 1 180.0000771 15.1670000 2
20149 20148 20150 20151 1 180.0000771 15.1670000 2
20149 20148 20150 20152 1 180.0000771 15.1670000 2
20146 20150 20148 20149 4 180.0000771 4.6024000 2
20143 20150 20152 20153 4 180.0000771 4.6024000 2
20148 20150 20152 20153 1 180.0000771 15.1670000 2
20151 20150 20152 20153 1 180.0000771 15.1670000 2
20143 20152 20150 20148 1 180.0000771 15.1670000 2
20143 20152 20150 20151 1 180.0000771 15.1670000 2
20148 20152 20150 20151 4 180.0000771 4.6024000 2
20154 20155 20156 20157 1 180.0000771 15.1670000 2
20154 20155 20156 20158 1 180.0000771 15.1670000 2
20157 20155 20156 20158 4 180.0000771 4.6024000 2
20154 20155 20164 20156 4 180.0000771 4.6024000 2
20154 20155 20164 20162 1 180.0000771 15.1670000 2
20154 20155 20164 20165 1 180.0000771 15.1670000 2
20156 20155 20164 20162 1 180.0000771 15.1670000 2
20156 20155 20164 20165 1 180.0000771 15.1670000 2
20157 20156 20155 20164 1 180.0000771 15.1670000 2
20158 20156 20155 20164 1 180.0000771 15.1670000 2
20155 20156 20158 20159 1 180.0000771 15.1670000 2
20155 20156 20158 20160 1 180.0000771 15.1670000 2
20157 20156 20158 20159 1 180.0000771 15.1670000 2
20157 20156 20158 20160 1 180.0000771 15.1670000 2
20156 20158 20160 20161 1 180.0000771 15.1670000 2
20156 20158 20160 20162 1 180.0000771 15.1670000 2
20159 20158 20160 20161 1 180.0000771 15.1670000 2
20159 20158 20160 20162 1 180.0000771 15.1670000 2
20156 20160 20158 20159 4 180.0000771 4.6024000 2
20158 20160 20162 20163 1 180.0000771 15.1670000 2
20158 20160 20162 20164 1 180.0000771 15.1670000 2
20161 20160 20162 20163 1 180.0000771 15.1670000 2
20161 20160 20162 20164 1 180.0000771 15.1670000 2
20158 20162 20160 20161 4 180.0000771 4.6024000 2
20155 20162 20164 20165 4 180.0000771 4.6024000 2
20160 20162 20164 20165 1 180.0000771 15.1670000 2
20163 20162 20164 20165 1 180.0000771 15.1670000 2
20155 20164 20162 20160 1 180.0000771 15.1670000 2
20155 20164 20162 20163 1 180.0000771 15.1670000 2
20160 20164 20162 20163 4 180.0000771 4.6024000 2
20166 20167 20168 20169 1 180.0000771 15.1670000 2
20166 20167 20168 20170 1 180.0000771 15.1670000 2
20169 20167 20168 20170 4 180.0000771 4.6024000 2
20166 20167 20176 20168 4 180.0000771 4.6024000 2
20166 20167 20176 20174 1 180.0000771 15.1670000 2
20166 20167 20176 20177 1 180.0000771 15.1670000 2
20168 20167 20176 20174 1 180.0000771 15.1670000 2
20168 20167 20176 20177 1 180.0000771 15.1670000 2
20169 20168 20167 20176 1 180.0000771 15.1670000 2
20170 20168 20167 20176 1 180.0000771 15.1670000 2
20167 20168 20170 20171 1 180.0000771 15.1670000 2
20167 20168 20170 20172 1 180.0000771 15.1670000 2
20169 20168 20170 20171 1 180.0000771 15.1670000 2
20169 20168 20170 20172 1 180.0000771 15.1670000 2
20168 20170 20172 20173 1 180.0000771 15.1670000 2
20168 20170 20172 20174 1 180.0000771 15.1670000 2
20171 20170 20172 20173 1 180.0000771 15.1670000 2
20171 20170 20172 20174 1 180.0000771 15.1670000 2
20168 20172 20170 20171 4 180.0000771 4.6024000 2
20170 20172 20174 20175 1 180.0000771 15.1670000 2
20170 20172 20174 20176 1 180.0000771 15.1670000 2
20173 20172 20174 20175 1 180.0000771 15.1670000 2
20173 20172 20174 20176 1 180.0000771 15.1670000 2
20170 20174 20172 20173 4 180.0000771 4.6024000 2
20167 20174 20176 20177 4 180.0000771 4.6024000 2
20172 20174 20176 20177 1 180.0000771 15.1670000 2
20175 20174 20176 20177 1 180.0000771 15.1670000 2
20167 20176 20174 20172 1 180.0000771 15.1670000 2
20167 20176 20174 20175 1 180.0000771 15.1670000 2
20172 20176 20174 20175 4 180.0000771 4.6024000 2
20178 20179 20180 20181 1 180.0000771 15.1670000 2
20178 20179 20180 20182 1 180.0000771 15.1670000 2
20181 20179 20180 20182 4 180.0000771 4.6024000 2
20178 20179 20188 20180 4 180.0000771 4.6024000 2
20178 20179 20188 20186 1 180.0000771 15.1670000 2
20178 20179 20188 20189 1 180.0000771 15.1670000 2
20180 20179 20188 20186 1 180.0000771 15.1670000 2
20180 20179 20188 20189 1 180.0000771 15.1670000 2
20181 20180 20179 20188 1 180.0000771 15.1670000 2
20182 20180 20179 20188 1 180.0000771 15.1670000 2
20179 20180 20182 20183 1 180.0000771 15.1670000 2
20179 20180 20182 20184 1 180.0000771 15.1670000 2
20181 20180 20182 20183 1 180.0000771 15.1670000 2
20181 20180 20182 20184 1 180.0000771 15.1670000 2
20180 20182 20184 20185 1 180.0000771 15.1670000 2
20180 20182 20184 20186 1 180.0000771 15.1670000 2
20183 20182 20184 20185 1 180.0000771 15.1670000 2
20183 20182 20184 20186 1 180.0000771 15.1670000 2
20180 20184 20182 20183 4 180.0000771 4.6024000 2
20182 20184 20186 20187 1 180.0000771 15.1670000 2
20182 20184 20186 20188 1 180.0000771 15.1670000 2
20185 20184 20186 20187 1 180.0000771 15.1670000 2
20185 20184 20186 20188 1 180.0000771 15.1670000 2
20182 20186 20184 20185 4 180.0000771 4.6024000 2
20179 20186 20188 20189 4 180.0000771 4.6024000 2
20184 20186 20188 20189 1 180.0000771 15.1670000 2
20187 20186 20188 20189 1 180.0000771 15.1670000 2
20179 20188 20186 20184 1 180.0000771 15.1670000 2
20179 20188 20186 20187 1 180.0000771 15.1670000 2
20184 20188 20186 20187 4 180.0000771 4.6024000 2
20190 20191 20192 20193 1 180.0000771 15.1670000 2
20190 20191 20192 20194 1 180.0000771 15.1670000 2
20193 20191 20192 20194 4 180.0000771 4.6024000 2
20190 20191 20200 20192 4 180.0000771 4.6024000 2
20190 20191 20200 20198 1 180.0000771 15.1670000 2
20190 20191 20200 20201 1 180.0000771 15.1670000 2
20192 20191 20200 20198 1 180.0000771 15.1670000 2
20192 20191 20200 20201 1 180.0000771 15.1670000 2
20193 20192 20191 20200 1 180.0000771 15.1670000 2
20194 20192 20191 20200 1 180.0000771 15.1670000 2
20191 20192 20194 20195 1 180.0000771 15.1670000 2
20191 20192 20194 20196 1 180.0000771 15.1670000 2
20193 20192 20194 20195 1 180.0000771 15.1670000 2
20193 20192 20194 20196 1 180.0000771 15.1670000 2
20192 20194 20196 20197 1 180.0000771 15.1670000 2
20192 20194 20196 20198 1 180.0000771 15.1670000 2
20195 20194 20196 20197 1 180.0000771 15.1670000 2
20195 20194 20196 20198 1 180.0000771 15.1670000 2
20192 20196 20194 20195 4 180.0000771 4.6024000 2
20194 20196 20198 20199 1 180.0000771 15.1670000 2
20194 20196 20198 20200 1 180.0000771 15.1670000 2
20197 20196 20198 20199 1 180.0000771 15.1670000 2
20197 20196 20198 20200 1 180.0000771 15.1670000 2
20194 20198 20196 20197 4 180.0000771 4.6024000 2
20191 20198 20200 20201 4 180.0000771 4.6024000 2
20196 20198 20200 20201 1 180.0000771 15.1670000 2
20199 20198 20200 20201 1 180.0000771 15.1670000 2
20191 20200 20198 20196 1 180.0000771 15.1670000 2
20191 20200 20198 20199 1 180.0000771 15.1670000 2
20196 20200 20198 20199 4 180.0000771 4.6024000 2
20202 20203 20204 20205 1 180.0000771 15.1670000 2
20202 20203 20204 20206 1 180.0000771 15.1670000 2
20205 20203 20204 20206 4 180.0000771 4.6024000 2
20202 20203 20212 20204 4 180.0000771 4.6024000 2
20202 20203 20212 20210 1 180.0000771 15.1670000 2
20202 20203 20212 20213 1 180.0000771 15.1670000 2
20204 20203 20212 20210 1 180.0000771 15.1670000 2
20204 20203 20212 20213 1 180.0000771 15.1670000 2
20205 20204 20203 20212 1 180.0000771 15.1670000 2
20206 20204 20203 20212 1 180.0000771 15.1670000 2
20203 20204 20206 20207 1 180.0000771 15.1670000 2
20203 20204 20206 20208 1 180.0000771 15.1670000 2
20205 20204 20206 20207 1 180.0000771 15.1670000 2
20205 20204 20206 20208 1 180.0000771 15.1670000 2
20204 20206 20208 20209 1 180.0000771 15.1670000 2
20204 20206 20208 20210 1 180.0000771 15.1670000 2
20207 20206 20208 20209 1 180.0000771 15.1670000 2
20207 20206 20208 20210 1 180.0000771 15.1670000 2
20204 20208 20206 20207 4 180.0000771 4.6024000 2
20206 20208 20210 20211 1 180.0000771 15.1670000 2
20206 20208 20210 20212 1 180.0000771 15.1670000 2
20209 20208 20210 20211 1 180.0000771 15.1670000 2
20209 20208 20210 20212 1 180.0000771 15.1670000 2
20206 20210 20208 20209 4 180.0000771 4.6024000 2
20203 20210 20212 20213 4 180.0000771 4.6024000 2
20208 20210 20212 20213 1 180.0000771 15.1670000 2
20211 20210 20212 20213 1 180.0000771 15.1670000 2
20203 20212 20210 20208 1 180.0000771 15.1670000 2
20203 20212 20210 20211 1 180.0000771 15.1670000 2
20208 20212 20210 20211 4 180.0000771 4.6024000 2
20214 20215 20216 20217 1 180.0000771 15.1670000 2
20214 20215 20216 20218 1 180.0000771 15.1670000 2
20217 20215 20216 20218 4 180.0000771 4.6024000 2
20214 20215 20224 20216 4 180.0000771 4.6024000 2
20214 20215 20224 20222 1 180.0000771 15.1670000 2
20214 20215 20224 20225 1 180.0000771 15.1670000 2
20216 20215 20224 20222 1 180.0000771 15.1670000 2
20216 20215 20224 20225 1 180.0000771 15.1670000 2
20217 20216 20215 20224 1 180.0000771 15.1670000 2
20218 20216 20215 20224 1 180.0000771 15.1670000 2
20215 20216 20218 20219 1 180.0000771 15.1670000 2
20215 20216 20218 20220 1 180.0000771 15.1670000 2
20217 20216 20218 20219 1 180.0000771 15.1670000 2
20217 20216 20218 20220 1 180.0000771 15.1670000 2
20216 20218 20220 20221 1 180.0000771 15.1670000 2
20216 20218 20220 20222 1 180.0000771 15.1670000 2
20219 20218 20220 20221 1 180.0000771 15.1670000 2
20219 20218 20220 20222 1 180.0000771 15.1670000 2
20216 20220 20218 20219 4 180.0000771 4.6024000 2
20218 20220 20222 20223 1 180.0000771 15.1670000 2
20218 20220 20222 20224 1 180.0000771 15.1670000 2
20221 20220 20222 20223 1 180.0000771 15.1670000 2
20221 20220 20222 20224 1 180.0000771 15.1670000 2
20218 20222 20220 20221 4 180.0000771 4.6024000 2
20215 20222 20224 20225 4 180.0000771 4.6024000 2
20220 20222 20224 20225 1 180.0000771 15.1670000 2
20223 20222 20224 20225 1 180.0000771 15.1670000 2
20215 20224 20222 20220 1 180.0000771 15.1670000 2
20215 20224 20222 20223 1 180.0000771 15.1670000 2
20220 20224 20222 20223 4 180.0000771 4.6024000 2
20226 20227 20228 20229 1 180.0000771 15.1670000 2
20226 20227 20228 20230 1 180.0000771 15.1670000 2
20229 20227 20228 20230 4 180.0000771 4.6024000 2
20226 20227 20236 20228 4 180.0000771 4.6024000 2
20226 20227 20236 20234 1 180.0000771 15.1670000 2
20226 20227 20236 20237 1 180.0000771 15.1670000 2
20228 20227 20236 20234 1 180.0000771 15.1670000 2
20228 20227 20236 20237 1 180.0000771 15.1670000 2
20229 20228 20227 20236 1 180.0000771 15.1670000 2
20230 20228 20227 20236 1 180.0000771 15.1670000 2
20227 20228 20230 20231 1 180.0000771 15.1670000 2
20227 20228 20230 20232 1 180.0000771 15.1670000 2
20229 20228 20230 20231 1 180.0000771 15.1670000 2
20229 20228 20230 20232 1 180.0000771 15.1670000 2
20228 20230 20232 20233 1 180.0000771 15.1670000 2
20228 20230 20232 20234 1 180.0000771 15.1670000 2
20231 20230 20232 20233 1 180.0000771 15.1670000 2
20231 20230 20232 20234 1 180.0000771 15.1670000 2
20228 20232 20230 20231 4 180.0000771 4.6024000 2
20230 20232 20234 20235 1 180.0000771 15.1670000 2
20230 20232 20234 20236 1 180.0000771 15.1670000 2
20233 20232 20234 20235 1 180.0000771 15.1670000 2
20233 20232 20234 20236 1 180.0000771 15.1670000 2
20230 20234 20232 20233 4 180.0000771 4.6024000 2
20227 20234 20236 20237 4 180.0000771 4.6024000 2
20232 20234 20236 20237 1 180.0000771 15.1670000 2
20235 20234 20236 20237 1 180.0000771 15.1670000 2
20227 20236 20234 20232 1 180.0000771 15.1670000 2
20227 20236 20234 20235 1 180.0000771 15.1670000 2
20232 20236 20234 20235 4 180.0000771 4.6024000 2
20238 20239 20240 20241 1 180.0000771 15.1670000 2
20238 20239 20240 20242 1 180.0000771 15.1670000 2
20241 20239 20240 20242 4 180.0000771 4.6024000 2
20238 20239 20248 20240 4 180.0000771 4.6024000 2
20238 20239 20248 20246 1 180.0000771 15.1670000 2
20238 20239 20248 20249 1 180.0000771 15.1670000 2
20240 20239 20248 20246 1 180.0000771 15.1670000 2
20240 20239 20248 20249 1 180.0000771 15.1670000 2
20241 20240 20239 20248 1 180.0000771 15.1670000 2
20242 20240 20239 20248 1 180.0000771 15.1670000 2
20239 20240 20242 20243 1 180.0000771 15.1670000 2
20239 20240 20242 20244 1 180.0000771 15.1670000 2
20241 20240 20242 20243 1 180.0000771 15.1670000 2
20241 20240 20242 20244 1 180.0000771 15.1670000 2
20240 20242 20244 20245 1 180.0000771 15.1670000 2
20240 20242 20244 20246 1 180.0000771 15.1670000 2
20243 20242 20244 20245 1 180.0000771 15.1670000 2
20243 20242 20244 20246 1 180.0000771 15.1670000 2
20240 20244 20242 20243 4 180.0000771 4.6024000 2
20242 20244 20246 20247 1 180.0000771 15.1670000 2
20242 20244 20246 20248 1 180.0000771 15.1670000 2
20245 20244 20246 20247 1 180.0000771 15.1670000 2
20245 20244 20246 20248 1 180.0000771 15.1670000 2
20242 20246 20244 20245 4 180.0000771 4.6024000 2
20239 20246 20248 20249 4 180.0000771 4.6024000 2
20244 20246 20248 20249 1 180.0000771 15.1670000 2
20247 20246 20248 20249 1 180.0000771 15.1670000 2
20239 20248 20246 20244 1 180.0000771 15.1670000 2
20239 20248 20246 20247 1 180.0000771 15.1670000 2
20244 20248 20246 20247 4 180.0000771 4.6024000 2
20250 20251 20252 20253 1 180.0000771 15.1670000 2
20250 20251 20252 20254 1 180.0000771 15.1670000 2
20253 20251 20252 20254 4 180.0000771 4.6024000 2
20250 20251 20260 20252 4 180.0000771 4.6024000 2
20250 20251 20260 20258 1 180.0000771 15.1670000 2
20250 20251 20260 20261 1 180.0000771 15.1670000 2
20252 20251 20260 20258 1 180.0000771 15.1670000 2
20252 20251 20260 20261 1 180.0000771 15.1670000 2
20253 20252 20251 20260 1 180.0000771 15.1670000 2
20254 20252 20251 20260 1 180.0000771 15.1670000 2
20251 20252 20254 20255 1 180.0000771 15.1670000 2
20251 20252 20254 20256 1 180.0000771 15.1670000 2
20253 20252 20254 20255 1 180.0000771 15.1670000 2
20253 20252 20254 20256 1 180.0000771 15.1670000 2
20252 20254 20256 20257 1 180.0000771 15.1670000 2
20252 20254 20256 20258 1 180.0000771 15.1670000 2
20255 20254 20256 20257 1 180.0000771 15.1670000 2
20255 20254 20256 20258 1 180.0000771 15.1670000 2
20252 20256 20254 20255 4 180.0000771 4.6024000 2
20254 20256 20258 20259 1 180.0000771 15.1670000 2
20254 20256 20258 20260 1 180.0000771 15.1670000 2
20257 20256 20258 20259 1 180.0000771 15.1670000 2
20257 20256 20258 20260 1 180.0000771 15.1670000 2
20254 20258 20256 20257 4 180.0000771 4.6024000 2
20251 20258 20260 20261 4 180.0000771 4.6024000 2
20256 20258 20260 20261 1 180.0000771 15.1670000 2
20259 20258 20260 20261 1 180.0000771 15.1670000 2
20251 20260 20258 20256 1 180.0000771 15.1670000 2
20251 20260 20258 20259 1 180.0000771 15.1670000 2
20256 20260 20258 20259 4 180.0000771 4.6024000 2
20262 20263 20264 20265 1 180.0000771 15.1670000 2
20262 20263 20264 20266 1 180.0000771 15.1670000 2
20265 20263 20264 20266 4 180.0000771 4.6024000 2
20262 20263 20272 20264 4 180.0000771 4.6024000 2
20262 20263 20272 20270 1 180.0000771 15.1670000 2
20262 20263 20272 20273 1 180.0000771 15.1670000 2
20264 20263 20272 20270 1 180.0000771 15.1670000 2
20264 20263 20272 20273 1 180.0000771 15.1670000 2
20265 20264 20263 20272 1 180.0000771 15.1670000 2
20266 20264 20263 20272 1 180.0000771 15.1670000 2
20263 20264 20266 20267 1 180.0000771 15.1670000 2
20263 20264 20266 20268 1 180.0000771 15.1670000 2
20265 20264 20266 20267 1 180.0000771 15.1670000 2
20265 20264 20266 20268 1 180.0000771 15.1670000 2
20264 20266 20268 20269 1 180.0000771 15.1670000 2
20264 20266 20268 20270 1 180.0000771 15.1670000 2
20267 20266 20268 20269 1 180.0000771 15.1670000 2
20267 20266 20268 20270 1 180.0000771 15.1670000 2
20264 20268 20266 20267 4 180.0000771 4.6024000 2
20266 20268 20270 20271 1 180.0000771 15.1670000 2
20266 20268 20270 20272 1 180.0000771 15.1670000 2
20269 20268 20270 20271 1 180.0000771 15.1670000 2
20269 20268 20270 20272 1 180.0000771 15.1670000 2
20266 20270 20268 20269 4 180.0000771 4.6024000 2
20263 20270 20272 20273 4 180.0000771 4.6024000 2
20268 20270 20272 20273 1 180.0000771 15.1670000 2
20271 20270 20272 20273 1 180.0000771 15.1670000 2
20263 20272 20270 20268 1 180.0000771 15.1670000 2
20263 20272 20270 20271 1 180.0000771 15.1670000 2
20268 20272 20270 20271 4 180.0000771 4.6024000 2
20274 20275 20276 20277 1 180.0000771 15.1670000 2
20274 20275 20276 20278 1 180.0000771 15.1670000 2
20277 20275 20276 20278 4 180.0000771 4.6024000 2
20274 20275 20284 20276 4 180.0000771 4.6024000 2
20274 20275 20284 20282 1 180.0000771 15.1670000 2
20274 20275 20284 20285 1 180.0000771 15.1670000 2
20276 20275 20284 20282 1 180.0000771 15.1670000 2
20276 20275 20284 20285 1 180.0000771 15.1670000 2
20277 20276 20275 20284 1 180.0000771 15.1670000 2
20278 20276 20275 20284 1 180.0000771 15.1670000 2
20275 20276 20278 20279 1 180.0000771 15.1670000 2
20275 20276 20278 20280 1 180.0000771 15.1670000 2
20277 20276 20278 20279 1 180.0000771 15.1670000 2
20277 20276 20278 20280 1 180.0000771 15.1670000 2
20276 20278 20280 20281 1 180.0000771 15.1670000 2
20276 20278 20280 20282 1 180.0000771 15.1670000 2
20279 20278 20280 20281 1 180.0000771 15.1670000 2
20279 20278 20280 20282 1 180.0000771 15.1670000 2
20276 20280 20278 20279 4 180.0000771 4.6024000 2
20278 20280 20282 20283 1 180.0000771 15.1670000 2
20278 20280 20282 20284 1 180.0000771 15.1670000 2
20281 20280 20282 20283 1 180.0000771 15.1670000 2
20281 20280 20282 20284 1 180.0000771 15.1670000 2
20278 20282 20280 20281 4 180.0000771 4.6024000 2
20275 20282 20284 20285 4 180.0000771 4.6024000 2
20280 20282 20284 20285 1 180.0000771 15.1670000 2
20283 20282 20284 20285 1 180.0000771 15.1670000 2
20275 20284 20282 20280 1 180.0000771 15.1670000 2
20275 20284 20282 20283 1 180.0000771 15.1670000 2
20280 20284 20282 20283 4 180.0000771 4.6024000 2
20286 20287 20288 20289 1 180.0000771 15.1670000 2
20286 20287 20288 20290 1 180.0000771 15.1670000 2
20289 20287 20288 20290 4 180.0000771 4.6024000 2
20286 20287 20296 20288 4 180.0000771 4.6024000 2
20286 20287 20296 20294 1 180.0000771 15.1670000 2
20286 20287 20296 20297 1 180.0000771 15.1670000 2
20288 20287 20296 20294 1 180.0000771 15.1670000 2
20288 20287 20296 20297 1 180.0000771 15.1670000 2
20289 20288 20287 20296 1 180.0000771 15.1670000 2
20290 20288 20287 20296 1 180.0000771 15.1670000 2
20287 20288 20290 20291 1 180.0000771 15.1670000 2
20287 20288 20290 20292 1 180.0000771 15.1670000 2
20289 20288 20290 20291 1 180.0000771 15.1670000 2
20289 20288 20290 20292 1 180.0000771 15.1670000 2
20288 20290 20292 20293 1 180.0000771 15.1670000 2
20288 20290 20292 20294 1 180.0000771 15.1670000 2
20291 20290 20292 20293 1 180.0000771 15.1670000 2
20291 20290 20292 20294 1 180.0000771 15.1670000 2
20288 20292 20290 20291 4 180.0000771 4.6024000 2
20290 20292 20294 20295 1 180.0000771 15.1670000 2
20290 20292 20294 20296 1 180.0000771 15.1670000 2
20293 20292 20294 20295 1 180.0000771 15.1670000 2
20293 20292 20294 20296 1 180.0000771 15.1670000 2
20290 20294 20292 20293 4 180.0000771 4.6024000 2
20287 20294 20296 20297 4 180.0000771 4.6024000 2
20292 20294 20296 20297 1 180.0000771 15.1670000 2
20295 20294 20296 20297 1 180.0000771 15.1670000 2
20287 20296 20294 20292 1 180.0000771 15.1670000 2
20287 20296 20294 20295 1 180.0000771 15.1670000 2
20292 20296 20294 20295 4 180.0000771 4.6024000 2
20298 20299 20300 20301 1 180.0000771 15.1670000 2
20298 20299 20300 20302 1 180.0000771 15.1670000 2
20301 20299 20300 20302 4 180.0000771 4.6024000 2
20298 20299 20308 20300 4 180.0000771 4.6024000 2
20298 20299 20308 20306 1 180.0000771 15.1670000 2
20298 20299 20308 20309 1 180.0000771 15.1670000 2
20300 20299 20308 20306 1 180.0000771 15.1670000 2
20300 20299 20308 20309 1 180.0000771 15.1670000 2
20301 20300 20299 20308 1 180.0000771 15.1670000 2
20302 20300 20299 20308 1 180.0000771 15.1670000 2
20299 20300 20302 20303 1 180.0000771 15.1670000 2
20299 20300 20302 20304 1 180.0000771 15.1670000 2
20301 20300 20302 20303 1 180.0000771 15.1670000 2
20301 20300 20302 20304 1 180.0000771 15.1670000 2
20300 20302 20304 20305 1 180.0000771 15.1670000 2
20300 20302 20304 20306 1 180.0000771 15.1670000 2
20303 20302 20304 20305 1 180.0000771 15.1670000 2
20303 20302 20304 20306 1 180.0000771 15.1670000 2
20300 20304 20302 20303 4 180.0000771 4.6024000 2
20302 20304 20306 20307 1 180.0000771 15.1670000 2
20302 20304 20306 20308 1 180.0000771 15.1670000 2
20305 20304 20306 20307 1 180.0000771 15.1670000 2
20305 20304 20306 20308 1 180.0000771 15.1670000 2
20302 20306 20304 20305 4 180.0000771 4.6024000 2
20299 20306 20308 20309 4 180.0000771 4.6024000 2
20304 20306 20308 20309 1 180.0000771 15.1670000 2
20307 20306 20308 20309 1 180.0000771 15.1670000 2
20299 20308 20306 20304 1 180.0000771 15.1670000 2
20299 20308 20306 20307 1 180.0000771 15.1670000 2
20304 20308 20306 20307 4 180.0000771 4.6024000 2
20310 20311 20312 20313 1 180.0000771 15.1670000 2
20310 20311 20312 20314 1 180.0000771 15.1670000 2
20313 20311 20312 20314 4 180.0000771 4.6024000 2
20310 20311 20320 20312 4 180.0000771 4.6024000 2
20310 20311 20320 20318 1 180.0000771 15.1670000 2
20310 20311 20320 20321 1 180.0000771 15.1670000 2
20312 20311 20320 20318 1 180.0000771 15.1670000 2
20312 20311 20320 20321 1 180.0000771 15.1670000 2
20313 20312 20311 20320 1 180.0000771 15.1670000 2
20314 20312 20311 20320 1 180.0000771 15.1670000 2
20311 20312 20314 20315 1 180.0000771 15.1670000 2
20311 20312 20314 20316 1 180.0000771 15.1670000 2
20313 20312 20314 20315 1 180.0000771 15.1670000 2
20313 20312 20314 20316 1 180.0000771 15.1670000 2
20312 20314 20316 20317 1 180.0000771 15.1670000 2
20312 20314 20316 20318 1 180.0000771 15.1670000 2
20315 20314 20316 20317 1 180.0000771 15.1670000 2
20315 20314 20316 20318 1 180.0000771 15.1670000 2
20312 20316 20314 20315 4 180.0000771 4.6024000 2
20314 20316 20318 20319 1 180.0000771 15.1670000 2
20314 20316 20318 20320 1 180.0000771 15.1670000 2
20317 20316 20318 20319 1 180.0000771 15.1670000 2
20317 20316 20318 20320 1 180.0000771 15.1670000 2
20314 20318 20316 20317 4 180.0000771 4.6024000 2
20311 20318 20320 20321 4 180.0000771 4.6024000 2
20316 20318 20320 20321 1 180.0000771 15.1670000 2
20319 20318 20320 20321 1 180.0000771 15.1670000 2
20311 20320 20318 20316 1 180.0000771 15.1670000 2
20311 20320 20318 20319 1 180.0000771 15.1670000 2
20316 20320 20318 20319 4 180.0000771 4.6024000 2
20322 20323 20324 20325 1 180.0000771 15.1670000 2
20322 20323 20324 20326 1 180.0000771 15.1670000 2
20325 20323 20324 20326 4 180.0000771 4.6024000 2
20322 20323 20332 20324 4 180.0000771 4.6024000 2
20322 20323 20332 20330 1 180.0000771 15.1670000 2
20322 20323 20332 20333 1 180.0000771 15.1670000 2
20324 20323 20332 20330 1 180.0000771 15.1670000 2
20324 20323 20332 20333 1 180.0000771 15.1670000 2
20325 20324 20323 20332 1 180.0000771 15.1670000 2
20326 20324 20323 20332 1 180.0000771 15.1670000 2
20323 20324 20326 20327 1 180.0000771 15.1670000 2
20323 20324 20326 20328 1 180.0000771 15.1670000 2
20325 20324 20326 20327 1 180.0000771 15.1670000 2
20325 20324 20326 20328 1 180.0000771 15.1670000 2
20324 20326 20328 20329 1 180.0000771 15.1670000 2
20324 20326 20328 20330 1 180.0000771 15.1670000 2
20327 20326 20328 20329 1 180.0000771 15.1670000 2
20327 20326 20328 20330 1 180.0000771 15.1670000 2
20324 20328 20326 20327 4 180.0000771 4.6024000 2
20326 20328 20330 20331 1 180.0000771 15.1670000 2
20326 20328 20330 20332 1 180.0000771 15.1670000 2
20329 20328 20330 20331 1 180.0000771 15.1670000 2
20329 20328 20330 20332 1 180.0000771 15.1670000 2
20326 20330 20328 20329 4 180.0000771 4.6024000 2
20323 20330 20332 20333 4 180.0000771 4.6024000 2
20328 20330 20332 20333 1 180.0000771 15.1670000 2
20331 20330 20332 20333 1 180.0000771 15.1670000 2
20323 20332 20330 20328 1 180.0000771 15.1670000 2
20323 20332 20330 20331 1 180.0000771 15.1670000 2
20328 20332 20330 20331 4 180.0000771 4.6024000 2
20334 20335 20336 20337 1 180.0000771 15.1670000 2
20334 20335 20336 20338 1 180.0000771 15.1670000 2
20337 20335 20336 20338 4 180.0000771 4.6024000 2
20334 20335 20344 20336 4 180.0000771 4.6024000 2
20334 20335 20344 20342 1 180.0000771 15.1670000 2
20334 20335 20344 20345 1 180.0000771 15.1670000 2
20336 20335 20344 20342 1 180.0000771 15.1670000 2
20336 20335 20344 20345 1 180.0000771 15.1670000 2
20337 20336 20335 20344 1 180.0000771 15.1670000 2
20338 20336 20335 20344 1 180.0000771 15.1670000 2
20335 20336 20338 20339 1 180.0000771 15.1670000 2
20335 20336 20338 20340 1 180.0000771 15.1670000 2
20337 20336 20338 20339 1 180.0000771 15.1670000 2
20337 20336 20338 20340 1 180.0000771 15.1670000 2
20336 20338 20340 20341 1 180.0000771 15.1670000 2
20336 20338 20340 20342 1 180.0000771 15.1670000 2
20339 20338 20340 20341 1 180.0000771 15.1670000 2
20339 20338 20340 20342 1 180.0000771 15.1670000 2
20336 20340 20338 20339 4 180.0000771 4.6024000 2
20338 20340 20342 20343 1 180.0000771 15.1670000 2
20338 20340 20342 20344 1 180.0000771 15.1670000 2
20341 20340 20342 20343 1 180.0000771 15.1670000 2
20341 20340 20342 20344 1 180.0000771 15.1670000 2
20338 20342 20340 20341 4 180.0000771 4.6024000 2
20335 20342 20344 20345 4 180.0000771 4.6024000 2
20340 20342 20344 20345 1 180.0000771 15.1670000 2
20343 20342 20344 20345 1 180.0000771 15.1670000 2
20335 20344 20342 20340 1 180.0000771 15.1670000 2
20335 20344 20342 20343 1 180.0000771 15.1670000 2
20340 20344 20342 20343 4 180.0000771 4.6024000 2
20346 20347 20348 20349 1 180.0000771 15.1670000 2
20346 20347 20348 20350 1 180.0000771 15.1670000 2
20349 20347 20348 20350 4 180.0000771 4.6024000 2
20346 20347 20356 20348 4 180.0000771 4.6024000 2
20346 20347 20356 20354 1 180.0000771 15.1670000 2
20346 20347 20356 20357 1 180.0000771 15.1670000 2
20348 20347 20356 20354 1 180.0000771 15.1670000 2
20348 20347 20356 20357 1 180.0000771 15.1670000 2
20349 20348 20347 20356 1 180.0000771 15.1670000 2
20350 20348 20347 20356 1 180.0000771 15.1670000 2
20347 20348 20350 20351 1 180.0000771 15.1670000 2
20347 20348 20350 20352 1 180.0000771 15.1670000 2
20349 20348 20350 20351 1 180.0000771 15.1670000 2
20349 20348 20350 20352 1 180.0000771 15.1670000 2
20348 20350 20352 20353 1 180.0000771 15.1670000 2
20348 20350 20352 20354 1 180.0000771 15.1670000 2
20351 20350 20352 20353 1 180.0000771 15.1670000 2
20351 20350 20352 20354 1 180.0000771 15.1670000 2
20348 20352 20350 20351 4 180.0000771 4.6024000 2
20350 20352 20354 20355 1 180.0000771 15.1670000 2
20350 20352 20354 20356 1 180.0000771 15.1670000 2
20353 20352 20354 20355 1 180.0000771 15.1670000 2
20353 20352 20354 20356 1 180.0000771 15.1670000 2
20350 20354 20352 20353 4 180.0000771 4.6024000 2
20347 20354 20356 20357 4 180.0000771 4.6024000 2
20352 20354 20356 20357 1 180.0000771 15.1670000 2
20355 20354 20356 20357 1 180.0000771 15.1670000 2
20347 20356 20354 20352 1 180.0000771 15.1670000 2
20347 20356 20354 20355 1 180.0000771 15.1670000 2
20352 20356 20354 20355 4 180.0000771 4.6024000 2
20358 20359 20360 20361 1 180.0000771 15.1670000 2
20358 20359 20360 20362 1 180.0000771 15.1670000 2
20361 20359 20360 20362 4 180.0000771 4.6024000 2
20358 20359 20368 20360 4 180.0000771 4.6024000 2
20358 20359 20368 20366 1 180.0000771 15.1670000 2
20358 20359 20368 20369 1 180.0000771 15.1670000 2
20360 20359 20368 20366 1 180.0000771 15.1670000 2
20360 20359 20368 20369 1 180.0000771 15.1670000 2
20361 20360 20359 20368 1 180.0000771 15.1670000 2
20362 20360 20359 20368 1 180.0000771 15.1670000 2
20359 20360 20362 20363 1 180.0000771 15.1670000 2
20359 20360 20362 20364 1 180.0000771 15.1670000 2
20361 20360 20362 20363 1 180.0000771 15.1670000 2
20361 20360 20362 20364 1 180.0000771 15.1670000 2
20360 20362 20364 20365 1 180.0000771 15.1670000 2
20360 20362 20364 20366 1 180.0000771 15.1670000 2
20363 20362 20364 20365 1 180.0000771 15.1670000 2
20363 20362 20364 20366 1 180.0000771 15.1670000 2
20360 20364 20362 20363 4 180.0000771 4.6024000 2
20362 20364 20366 20367 1 180.0000771 15.1670000 2
20362 20364 20366 20368 1 180.0000771 15.1670000 2
20365 20364 20366 20367 1 180.0000771 15.1670000 2
20365 20364 20366 20368 1 180.0000771 15.1670000 2
20362 20366 20364 20365 4 180.0000771 4.6024000 2
20359 20366 20368 20369 4 180.0000771 4.6024000 2
20364 20366 20368 20369 1 180.0000771 15.1670000 2
20367 20366 20368 20369 1 180.0000771 15.1670000 2
20359 20368 20366 20364 1 180.0000771 15.1670000 2
20359 20368 20366 20367 1 180.0000771 15.1670000 2
20364 20368 20366 20367 4 180.0000771 4.6024000 2
20370 20371 20372 20373 1 180.0000771 15.1670000 2
20370 20371 20372 20374 1 180.0000771 15.1670000 2
20373 20371 20372 20374 4 180.0000771 4.6024000 2
20370 20371 20380 20372 4 180.0000771 4.6024000 2
20370 20371 20380 20378 1 180.0000771 15.1670000 2
20370 20371 20380 20381 1 180.0000771 15.1670000 2
20372 20371 20380 20378 1 180.0000771 15.1670000 2
20372 20371 20380 20381 1 180.0000771 15.1670000 2
20373 20372 20371 20380 1 180.0000771 15.1670000 2
20374 20372 20371 20380 1 180.0000771 15.1670000 2
20371 20372 20374 20375 1 180.0000771 15.1670000 2
20371 20372 20374 20376 1 180.0000771 15.1670000 2
20373 20372 20374 20375 1 180.0000771 15.1670000 2
20373 20372 20374 20376 1 180.0000771 15.1670000 2
20372 20374 20376 20377 1 180.0000771 15.1670000 2
20372 20374 20376 20378 1 180.0000771 15.1670000 2
20375 20374 20376 20377 1 180.0000771 15.1670000 2
20375 20374 20376 20378 1 180.0000771 15.1670000 2
20372 20376 20374 20375 4 180.0000771 4.6024000 2
20374 20376 20378 20379 1 180.0000771 15.1670000 2
20374 20376 20378 20380 1 180.0000771 15.1670000 2
20377 20376 20378 20379 1 180.0000771 15.1670000 2
20377 20376 20378 20380 1 180.0000771 15.1670000 2
20374 20378 20376 20377 4 180.0000771 4.6024000 2
20371 20378 20380 20381 4 180.0000771 4.6024000 2
20376 20378 20380 20381 1 180.0000771 15.1670000 2
20379 20378 20380 20381 1 180.0000771 15.1670000 2
20371 20380 20378 20376 1 180.0000771 15.1670000 2
20371 20380 20378 20379 1 180.0000771 15.1670000 2
20376 20380 20378 20379 4 180.0000771 4.6024000 2
20382 20383 20384 20385 1 180.0000771 15.1670000 2
20382 20383 20384 20386 1 180.0000771 15.1670000 2
20385 20383 20384 20386 4 180.0000771 4.6024000 2
20382 20383 20392 20384 4 180.0000771 4.6024000 2
20382 20383 20392 20390 1 180.0000771 15.1670000 2
20382 20383 20392 20393 1 180.0000771 15.1670000 2
20384 20383 20392 20390 1 180.0000771 15.1670000 2
20384 20383 20392 20393 1 180.0000771 15.1670000 2
20385 20384 20383 20392 1 180.0000771 15.1670000 2
20386 20384 20383 20392 1 180.0000771 15.1670000 2
20383 20384 20386 20387 1 180.0000771 15.1670000 2
20383 20384 20386 20388 1 180.0000771 15.1670000 2
20385 20384 20386 20387 1 180.0000771 15.1670000 2
20385 20384 20386 20388 1 180.0000771 15.1670000 2
20384 20386 20388 20389 1 180.0000771 15.1670000 2
20384 20386 20388 20390 1 180.0000771 15.1670000 2
20387 20386 20388 20389 1 180.0000771 15.1670000 2
20387 20386 20388 20390 1 180.0000771 15.1670000 2
20384 20388 20386 20387 4 180.0000771 4.6024000 2
20386 20388 20390 20391 1 180.0000771 15.1670000 2
20386 20388 20390 20392 1 180.0000771 15.1670000 2
20389 20388 20390 20391 1 180.0000771 15.1670000 2
20389 20388 20390 20392 1 180.0000771 15.1670000 2
20386 20390 20388 20389 4 180.0000771 4.6024000 2
20383 20390 20392 20393 4 180.0000771 4.6024000 2
20388 20390 20392 20393 1 180.0000771 15.1670000 2
20391 20390 20392 20393 1 180.0000771 15.1670000 2
20383 20392 20390 20388 1 180.0000771 15.1670000 2
20383 20392 20390 20391 1 180.0000771 15.1670000 2
20388 20392 20390 20391 4 180.0000771 4.6024000 2
20394 20395 20396 20397 1 180.0000771 15.1670000 2
20394 20395 20396 20398 1 180.0000771 15.1670000 2
20397 20395 20396 20398 4 180.0000771 4.6024000 2
20394 20395 20404 20396 4 180.0000771 4.6024000 2
20394 20395 20404 20402 1 180.0000771 15.1670000 2
20394 20395 20404 20405 1 180.0000771 15.1670000 2
20396 20395 20404 20402 1 180.0000771 15.1670000 2
20396 20395 20404 20405 1 180.0000771 15.1670000 2
20397 20396 20395 20404 1 180.0000771 15.1670000 2
20398 20396 20395 20404 1 180.0000771 15.1670000 2
20395 20396 20398 20399 1 180.0000771 15.1670000 2
20395 20396 20398 20400 1 180.0000771 15.1670000 2
20397 20396 20398 20399 1 180.0000771 15.1670000 2
20397 20396 20398 20400 1 180.0000771 15.1670000 2
20396 20398 20400 20401 1 180.0000771 15.1670000 2
20396 20398 20400 20402 1 180.0000771 15.1670000 2
20399 20398 20400 20401 1 180.0000771 15.1670000 2
20399 20398 20400 20402 1 180.0000771 15.1670000 2
20396 20400 20398 20399 4 180.0000771 4.6024000 2
20398 20400 20402 20403 1 180.0000771 15.1670000 2
20398 20400 20402 20404 1 180.0000771 15.1670000 2
20401 20400 20402 20403 1 180.0000771 15.1670000 2
20401 20400 20402 20404 1 180.0000771 15.1670000 2
20398 20402 20400 20401 4 180.0000771 4.6024000 2
20395 20402 20404 20405 4 180.0000771 4.6024000 2
20400 20402 20404 20405 1 180.0000771 15.1670000 2
20403 20402 20404 20405 1 180.0000771 15.1670000 2
20395 20404 20402 20400 1 180.0000771 15.1670000 2
20395 20404 20402 20403 1 180.0000771 15.1670000 2
20400 20404 20402 20403 4 180.0000771 4.6024000 2
20406 20407 20408 20409 1 180.0000771 15.1670000 2
20406 20407 20408 20410 1 180.0000771 15.1670000 2
20409 20407 20408 20410 4 180.0000771 4.6024000 2
20406 20407 20416 20408 4 180.0000771 4.6024000 2
20406 20407 20416 20414 1 180.0000771 15.1670000 2
20406 20407 20416 20417 1 180.0000771 15.1670000 2
20408 20407 20416 20414 1 180.0000771 15.1670000 2
20408 20407 20416 20417 1 180.0000771 15.1670000 2
20409 20408 20407 20416 1 180.0000771 15.1670000 2
20410 20408 20407 20416 1 180.0000771 15.1670000 2
20407 20408 20410 20411 1 180.0000771 15.1670000 2
20407 20408 20410 20412 1 180.0000771 15.1670000 2
20409 20408 20410 20411 1 180.0000771 15.1670000 2
20409 20408 20410 20412 1 180.0000771 15.1670000 2
20408 20410 20412 20413 1 180.0000771 15.1670000 2
20408 20410 20412 20414 1 180.0000771 15.1670000 2
20411 20410 20412 20413 1 180.0000771 15.1670000 2
20411 20410 20412 20414 1 180.0000771 15.1670000 2
20408 20412 20410 20411 4 180.0000771 4.6024000 2
20410 20412 20414 20415 1 180.0000771 15.1670000 2
20410 20412 20414 20416 1 180.0000771 15.1670000 2
20413 20412 20414 20415 1 180.0000771 15.1670000 2
20413 20412 20414 20416 1 180.0000771 15.1670000 2
20410 20414 20412 20413 4 180.0000771 4.6024000 2
20407 20414 20416 20417 4 180.0000771 4.6024000 2
20412 20414 20416 20417 1 180.0000771 15.1670000 2
20415 20414 20416 20417 1 180.0000771 15.1670000 2
20407 20416 20414 20412 1 180.0000771 15.1670000 2
20407 20416 20414 20415 1 180.0000771 15.1670000 2
20412 20416 20414 20415 4 180.0000771 4.6024000 2
20418 20419 20420 20421 1 180.0000771 15.1670000 2
20418 20419 20420 20422 1 180.0000771 15.1670000 2
20421 20419 20420 20422 4 180.0000771 4.6024000 2
20418 20419 20428 20420 4 180.0000771 4.6024000 2
20418 20419 20428 20426 1 180.0000771 15.1670000 2
20418 20419 20428 20429 1 180.0000771 15.1670000 2
20420 20419 20428 20426 1 180.0000771 15.1670000 2
20420 20419 20428 20429 1 180.0000771 15.1670000 2
20421 20420 20419 20428 1 180.0000771 15.1670000 2
20422 20420 20419 20428 1 180.0000771 15.1670000 2
20419 20420 20422 20423 1 180.0000771 15.1670000 2
20419 20420 20422 20424 1 180.0000771 15.1670000 2
20421 20420 20422 20423 1 180.0000771 15.1670000 2
20421 20420 20422 20424 1 180.0000771 15.1670000 2
20420 20422 20424 20425 1 180.0000771 15.1670000 2
20420 20422 20424 20426 1 180.0000771 15.1670000 2
20423 20422 20424 20425 1 180.0000771 15.1670000 2
20423 20422 20424 20426 1 180.0000771 15.1670000 2
20420 20424 20422 20423 4 180.0000771 4.6024000 2
20422 20424 20426 20427 1 180.0000771 15.1670000 2
20422 20424 20426 20428 1 180.0000771 15.1670000 2
20425 20424 20426 20427 1 180.0000771 15.1670000 2
20425 20424 20426 20428 1 180.0000771 15.1670000 2
20422 20426 20424 20425 4 180.0000771 4.6024000 2
20419 20426 20428 20429 4 180.0000771 4.6024000 2
20424 20426 20428 20429 1 180.0000771 15.1670000 2
20427 20426 20428 20429 1 180.0000771 15.1670000 2
20419 20428 20426 20424 1 180.0000771 15.1670000 2
20419 20428 20426 20427 1 180.0000771 15.1670000 2
20424 20428 20426 20427 4 180.0000771 4.6024000 2
20430 20431 20432 20433 1 180.0000771 15.1670000 2
20430 20431 20432 20434 1 180.0000771 15.1670000 2
20433 20431 20432 20434 4 180.0000771 4.6024000 2
20430 20431 20440 20432 4 180.0000771 4.6024000 2
20430 20431 20440 20438 1 180.0000771 15.1670000 2
20430 20431 20440 20441 1 180.0000771 15.1670000 2
20432 20431 20440 20438 1 180.0000771 15.1670000 2
20432 20431 20440 20441 1 180.0000771 15.1670000 2
20433 20432 20431 20440 1 180.0000771 15.1670000 2
20434 20432 20431 20440 1 180.0000771 15.1670000 2
20431 20432 20434 20435 1 180.0000771 15.1670000 2
20431 20432 20434 20436 1 180.0000771 15.1670000 2
20433 20432 20434 20435 1 180.0000771 15.1670000 2
20433 20432 20434 20436 1 180.0000771 15.1670000 2
20432 20434 20436 20437 1 180.0000771 15.1670000 2
20432 20434 20436 20438 1 180.0000771 15.1670000 2
20435 20434 20436 20437 1 180.0000771 15.1670000 2
20435 20434 20436 20438 1 180.0000771 15.1670000 2
20432 20436 20434 20435 4 180.0000771 4.6024000 2
20434 20436 20438 20439 1 180.0000771 15.1670000 2
20434 20436 20438 20440 1 180.0000771 15.1670000 2
20437 20436 20438 20439 1 180.0000771 15.1670000 2
20437 20436 20438 20440 1 180.0000771 15.1670000 2
20434 20438 20436 20437 4 180.0000771 4.6024000 2
20431 20438 20440 20441 4 180.0000771 4.6024000 2
20436 20438 20440 20441 1 180.0000771 15.1670000 2
20439 20438 20440 20441 1 180.0000771 15.1670000 2
20431 20440 20438 20436 1 180.0000771 15.1670000 2
20431 20440 20438 20439 1 180.0000771 15.1670000 2
20436 20440 20438 20439 4 180.0000771 4.6024000 2
20442 20443 20444 20445 1 180.0000771 15.1670000 2
20442 20443 20444 20446 1 180.0000771 15.1670000 2
20445 20443 20444 20446 4 180.0000771 4.6024000 2
20442 20443 20452 20444 4 180.0000771 4.6024000 2
20442 20443 20452 20450 1 180.0000771 15.1670000 2
20442 20443 20452 20453 1 180.0000771 15.1670000 2
20444 20443 20452 20450 1 180.0000771 15.1670000 2
20444 20443 20452 20453 1 180.0000771 15.1670000 2
20445 20444 20443 20452 1 180.0000771 15.1670000 2
20446 20444 20443 20452 1 180.0000771 15.1670000 2
20443 20444 20446 20447 1 180.0000771 15.1670000 2
20443 20444 20446 20448 1 180.0000771 15.1670000 2
20445 20444 20446 20447 1 180.0000771 15.1670000 2
20445 20444 20446 20448 1 180.0000771 15.1670000 2
20444 20446 20448 20449 1 180.0000771 15.1670000 2
20444 20446 20448 20450 1 180.0000771 15.1670000 2
20447 20446 20448 20449 1 180.0000771 15.1670000 2
20447 20446 20448 20450 1 180.0000771 15.1670000 2
20444 20448 20446 20447 4 180.0000771 4.6024000 2
20446 20448 20450 20451 1 180.0000771 15.1670000 2
20446 20448 20450 20452 1 180.0000771 15.1670000 2
20449 20448 20450 20451 1 180.0000771 15.1670000 2
20449 20448 20450 20452 1 180.0000771 15.1670000 2
20446 20450 20448 20449 4 180.0000771 4.6024000 2
20443 20450 20452 20453 4 180.0000771 4.6024000 2
20448 20450 20452 20453 1 180.0000771 15.1670000 2
20451 20450 20452 20453 1 180.0000771 15.1670000 2
20443 20452 20450 20448 1 180.0000771 15.1670000 2
20443 20452 20450 20451 1 180.0000771 15.1670000 2
20448 20452 20450 20451 4 180.0000771 4.6024000 2
20454 20455 20456 20457 1 180.0000771 15.1670000 2
20454 20455 20456 20458 1 180.0000771 15.1670000 2
20457 20455 20456 20458 4 180.0000771 4.6024000 2
20454 20455 20464 20456 4 180.0000771 4.6024000 2
20454 20455 20464 20462 1 180.0000771 15.1670000 2
20454 20455 20464 20465 1 180.0000771 15.1670000 2
20456 20455 20464 20462 1 180.0000771 15.1670000 2
20456 20455 20464 20465 1 180.0000771 15.1670000 2
20457 20456 20455 20464 1 180.0000771 15.1670000 2
20458 20456 20455 20464 1 180.0000771 15.1670000 2
20455 20456 20458 20459 1 180.0000771 15.1670000 2
20455 20456 20458 20460 1 180.0000771 15.1670000 2
20457 20456 20458 20459 1 180.0000771 15.1670000 2
20457 20456 20458 20460 1 180.0000771 15.1670000 2
20456 20458 20460 20461 1 180.0000771 15.1670000 2
20456 20458 20460 20462 1 180.0000771 15.1670000 2
20459 20458 20460 20461 1 180.0000771 15.1670000 2
20459 20458 20460 20462 1 180.0000771 15.1670000 2
20456 20460 20458 20459 4 180.0000771 4.6024000 2
20458 20460 20462 20463 1 180.0000771 15.1670000 2
20458 20460 20462 20464 1 180.0000771 15.1670000 2
20461 20460 20462 20463 1 180.0000771 15.1670000 2
20461 20460 20462 20464 1 180.0000771 15.1670000 2
20458 20462 20460 20461 4 180.0000771 4.6024000 2
20455 20462 20464 20465 4 180.0000771 4.6024000 2
20460 20462 20464 20465 1 180.0000771 15.1670000 2
20463 20462 20464 20465 1 180.0000771 15.1670000 2
20455 20464 20462 20460 1 180.0000771 15.1670000 2
20455 20464 20462 20463 1 180.0000771 15.1670000 2
20460 20464 20462 20463 4 180.0000771 4.6024000 2
20466 20467 20468 20469 1 180.0000771 15.1670000 2
20466 20467 20468 20470 1 180.0000771 15.1670000 2
20469 20467 20468 20470 4 180.0000771 4.6024000 2
20466 20467 20476 20468 4 180.0000771 4.6024000 2
20466 20467 20476 20474 1 180.0000771 15.1670000 2
20466 20467 20476 20477 1 180.0000771 15.1670000 2
20468 20467 20476 20474 1 180.0000771 15.1670000 2
20468 20467 20476 20477 1 180.0000771 15.1670000 2
20469 20468 20467 20476 1 180.0000771 15.1670000 2
20470 20468 20467 20476 1 180.0000771 15.1670000 2
20467 20468 20470 20471 1 180.0000771 15.1670000 2
20467 20468 20470 20472 1 180.0000771 15.1670000 2
20469 20468 20470 20471 1 180.0000771 15.1670000 2
20469 20468 20470 20472 1 180.0000771 15.1670000 2
20468 20470 20472 20473 1 180.0000771 15.1670000 2
20468 20470 20472 20474 1 180.0000771 15.1670000 2
20471 20470 20472 20473 1 180.0000771 15.1670000 2
20471 20470 20472 20474 1 180.0000771 15.1670000 2
20468 20472 20470 20471 4 180.0000771 4.6024000 2
20470 20472 20474 20475 1 180.0000771 15.1670000 2
20470 20472 20474 20476 1 180.0000771 15.1670000 2
20473 20472 20474 20475 1 180.0000771 15.1670000 2
20473 20472 20474 20476 1 180.0000771 15.1670000 2
20470 20474 20472 20473 4 180.0000771 4.6024000 2
20467 20474 20476 20477 4 180.0000771 4.6024000 2
20472 20474 20476 20477 1 180.0000771 15.1670000 2
20475 20474 20476 20477 1 180.0000771 15.1670000 2
20467 20476 20474 20472 1 180.0000771 15.1670000 2
20467 20476 20474 20475 1 180.0000771 15.1670000 2
20472 20476 20474 20475 4 180.0000771 4.6024000 2
20478 20479 20480 20481 1 180.0000771 15.1670000 2
20478 20479 20480 20482 1 180.0000771 15.1670000 2
20481 20479 20480 20482 4 180.0000771 4.6024000 2
20478 20479 20488 20480 4 180.0000771 4.6024000 2
20478 20479 20488 20486 1 180.0000771 15.1670000 2
20478 20479 20488 20489 1 180.0000771 15.1670000 2
20480 20479 20488 20486 1 180.0000771 15.1670000 2
20480 20479 20488 20489 1 180.0000771 15.1670000 2
20481 20480 20479 20488 1 180.0000771 15.1670000 2
20482 20480 20479 20488 1 180.0000771 15.1670000 2
20479 20480 20482 20483 1 180.0000771 15.1670000 2
20479 20480 20482 20484 1 180.0000771 15.1670000 2
20481 20480 20482 20483 1 180.0000771 15.1670000 2
20481 20480 20482 20484 1 180.0000771 15.1670000 2
20480 20482 20484 20485 1 180.0000771 15.1670000 2
20480 20482 20484 20486 1 180.0000771 15.1670000 2
20483 20482 20484 20485 1 180.0000771 15.1670000 2
20483 20482 20484 20486 1 180.0000771 15.1670000 2
20480 20484 20482 20483 4 180.0000771 4.6024000 2
20482 20484 20486 20487 1 180.0000771 15.1670000 2
20482 20484 20486 20488 1 180.0000771 15.1670000 2
20485 20484 20486 20487 1 180.0000771 15.1670000 2
20485 20484 20486 20488 1 180.0000771 15.1670000 2
20482 20486 20484 20485 4 180.0000771 4.6024000 2
20479 20486 20488 20489 4 180.0000771 4.6024000 2
20484 20486 20488 20489 1 180.0000771 15.1670000 2
20487 20486 20488 20489 1 180.0000771 15.1670000 2
20479 20488 20486 20484 1 180.0000771 15.1670000 2
20479 20488 20486 20487 1 180.0000771 15.1670000 2
20484 20488 20486 20487 4 180.0000771 4.6024000 2
20490 20491 20492 20493 1 180.0000771 15.1670000 2
20490 20491 20492 20494 1 180.0000771 15.1670000 2
20493 20491 20492 20494 4 180.0000771 4.6024000 2
20490 20491 20500 20492 4 180.0000771 4.6024000 2
20490 20491 20500 20498 1 180.0000771 15.1670000 2
20490 20491 20500 20501 1 180.0000771 15.1670000 2
20492 20491 20500 20498 1 180.0000771 15.1670000 2
20492 20491 20500 20501 1 180.0000771 15.1670000 2
20493 20492 20491 20500 1 180.0000771 15.1670000 2
20494 20492 20491 20500 1 180.0000771 15.1670000 2
20491 20492 20494 20495 1 180.0000771 15.1670000 2
20491 20492 20494 20496 1 180.0000771 15.1670000 2
20493 20492 20494 20495 1 180.0000771 15.1670000 2
20493 20492 20494 20496 1 180.0000771 15.1670000 2
20492 20494 20496 20497 1 180.0000771 15.1670000 2
20492 20494 20496 20498 1 180.0000771 15.1670000 2
20495 20494 20496 20497 1 180.0000771 15.1670000 2
20495 20494 20496 20498 1 180.0000771 15.1670000 2
20492 20496 20494 20495 4 180.0000771 4.6024000 2
20494 20496 20498 20499 1 180.0000771 15.1670000 2
20494 20496 20498 20500 1 180.0000771 15.1670000 2
20497 20496 20498 20499 1 180.0000771 15.1670000 2
20497 20496 20498 20500 1 180.0000771 15.1670000 2
20494 20498 20496 20497 4 180.0000771 4.6024000 2
20491 20498 20500 20501 4 180.0000771 4.6024000 2
20496 20498 20500 20501 1 180.0000771 15.1670000 2
20499 20498 20500 20501 1 180.0000771 15.1670000 2
20491 20500 20498 20496 1 180.0000771 15.1670000 2
20491 20500 20498 20499 1 180.0000771 15.1670000 2
20496 20500 20498 20499 4 180.0000771 4.6024000 2
20502 20503 20504 20505 1 180.0000771 15.1670000 2
20502 20503 20504 20506 1 180.0000771 15.1670000 2
20505 20503 20504 20506 4 180.0000771 4.6024000 2
20502 20503 20512 20504 4 180.0000771 4.6024000 2
20502 20503 20512 20510 1 180.0000771 15.1670000 2
20502 20503 20512 20513 1 180.0000771 15.1670000 2
20504 20503 20512 20510 1 180.0000771 15.1670000 2
20504 20503 20512 20513 1 180.0000771 15.1670000 2
20505 20504 20503 20512 1 180.0000771 15.1670000 2
20506 20504 20503 20512 1 180.0000771 15.1670000 2
20503 20504 20506 20507 1 180.0000771 15.1670000 2
20503 20504 20506 20508 1 180.0000771 15.1670000 2
20505 20504 20506 20507 1 180.0000771 15.1670000 2
20505 20504 20506 20508 1 180.0000771 15.1670000 2
20504 20506 20508 20509 1 180.0000771 15.1670000 2
20504 20506 20508 20510 1 180.0000771 15.1670000 2
20507 20506 20508 20509 1 180.0000771 15.1670000 2
20507 20506 20508 20510 1 180.0000771 15.1670000 2
20504 20508 20506 20507 4 180.0000771 4.6024000 2
20506 20508 20510 20511 1 180.0000771 15.1670000 2
20506 20508 20510 20512 1 180.0000771 15.1670000 2
20509 20508 20510 20511 1 180.0000771 15.1670000 2
20509 20508 20510 20512 1 180.0000771 15.1670000 2
20506 20510 20508 20509 4 180.0000771 4.6024000 2
20503 20510 20512 20513 4 180.0000771 4.6024000 2
20508 20510 20512 20513 1 180.0000771 15.1670000 2
20511 20510 20512 20513 1 180.0000771 15.1670000 2
20503 20512 20510 20508 1 180.0000771 15.1670000 2
20503 20512 20510 20511 1 180.0000771 15.1670000 2
20508 20512 20510 20511 4 180.0000771 4.6024000 2
20514 20515 20516 20517 1 180.0000771 15.1670000 2
20514 20515 20516 20518 1 180.0000771 15.1670000 2
20517 20515 20516 20518 4 180.0000771 4.6024000 2
20514 20515 20524 20516 4 180.0000771 4.6024000 2
20514 20515 20524 20522 1 180.0000771 15.1670000 2
20514 20515 20524 20525 1 180.0000771 15.1670000 2
20516 20515 20524 20522 1 180.0000771 15.1670000 2
20516 20515 20524 20525 1 180.0000771 15.1670000 2
20517 20516 20515 20524 1 180.0000771 15.1670000 2
20518 20516 20515 20524 1 180.0000771 15.1670000 2
20515 20516 20518 20519 1 180.0000771 15.1670000 2
20515 20516 20518 20520 1 180.0000771 15.1670000 2
20517 20516 20518 20519 1 180.0000771 15.1670000 2
20517 20516 20518 20520 1 180.0000771 15.1670000 2
20516 20518 20520 20521 1 180.0000771 15.1670000 2
20516 20518 20520 20522 1 180.0000771 15.1670000 2
20519 20518 20520 20521 1 180.0000771 15.1670000 2
20519 20518 20520 20522 1 180.0000771 15.1670000 2
20516 20520 20518 20519 4 180.0000771 4.6024000 2
20518 20520 20522 20523 1 180.0000771 15.1670000 2
20518 20520 20522 20524 1 180.0000771 15.1670000 2
20521 20520 20522 20523 1 180.0000771 15.1670000 2
20521 20520 20522 20524 1 180.0000771 15.1670000 2
20518 20522 20520 20521 4 180.0000771 4.6024000 2
20515 20522 20524 20525 4 180.0000771 4.6024000 2
20520 20522 20524 20525 1 180.0000771 15.1670000 2
20523 20522 20524 20525 1 180.0000771 15.1670000 2
20515 20524 20522 20520 1 180.0000771 15.1670000 2
20515 20524 20522 20523 1 180.0000771 15.1670000 2
20520 20524 20522 20523 4 180.0000771 4.6024000 2
20526 20527 20528 20529 1 180.0000771 15.1670000 2
20526 20527 20528 20530 1 180.0000771 15.1670000 2
20529 20527 20528 20530 4 180.0000771 4.6024000 2
20526 20527 20536 20528 4 180.0000771 4.6024000 2
20526 20527 20536 20534 1 180.0000771 15.1670000 2
20526 20527 20536 20537 1 180.0000771 15.1670000 2
20528 20527 20536 20534 1 180.0000771 15.1670000 2
20528 20527 20536 20537 1 180.0000771 15.1670000 2
20529 20528 20527 20536 1 180.0000771 15.1670000 2
20530 20528 20527 20536 1 180.0000771 15.1670000 2
20527 20528 20530 20531 1 180.0000771 15.1670000 2
20527 20528 20530 20532 1 180.0000771 15.1670000 2
20529 20528 20530 20531 1 180.0000771 15.1670000 2
20529 20528 20530 20532 1 180.0000771 15.1670000 2
20528 20530 20532 20533 1 180.0000771 15.1670000 2
20528 20530 20532 20534 1 180.0000771 15.1670000 2
20531 20530 20532 20533 1 180.0000771 15.1670000 2
20531 20530 20532 20534 1 180.0000771 15.1670000 2
20528 20532 20530 20531 4 180.0000771 4.6024000 2
20530 20532 20534 20535 1 180.0000771 15.1670000 2
20530 20532 20534 20536 1 180.0000771 15.1670000 2
20533 20532 20534 20535 1 180.0000771 15.1670000 2
20533 20532 20534 20536 1 180.0000771 15.1670000 2
20530 20534 20532 20533 4 180.0000771 4.6024000 2
20527 20534 20536 20537 4 180.0000771 4.6024000 2
20532 20534 20536 20537 1 180.0000771 15.1670000 2
20535 20534 20536 20537 1 180.0000771 15.1670000 2
20527 20536 20534 20532 1 180.0000771 15.1670000 2
20527 20536 20534 20535 1 180.0000771 15.1670000 2
20532 20536 20534 20535 4 180.0000771 4.6024000 2
20538 20539 20540 20541 1 180.0000771 15.1670000 2
20538 20539 20540 20542 1 180.0000771 15.1670000 2
20541 20539 20540 20542 4 180.0000771 4.6024000 2
20538 20539 20548 20540 4 180.0000771 4.6024000 2
20538 20539 20548 20546 1 180.0000771 15.1670000 2
20538 20539 20548 20549 1 180.0000771 15.1670000 2
20540 20539 20548 20546 1 180.0000771 15.1670000 2
20540 20539 20548 20549 1 180.0000771 15.1670000 2
20541 20540 20539 20548 1 180.0000771 15.1670000 2
20542 20540 20539 20548 1 180.0000771 15.1670000 2
20539 20540 20542 20543 1 180.0000771 15.1670000 2
20539 20540 20542 20544 1 180.0000771 15.1670000 2
20541 20540 20542 20543 1 180.0000771 15.1670000 2
20541 20540 20542 20544 1 180.0000771 15.1670000 2
20540 20542 20544 20545 1 180.0000771 15.1670000 2
20540 20542 20544 20546 1 180.0000771 15.1670000 2
20543 20542 20544 20545 1 180.0000771 15.1670000 2
20543 20542 20544 20546 1 180.0000771 15.1670000 2
20540 20544 20542 20543 4 180.0000771 4.6024000 2
20542 20544 20546 20547 1 180.0000771 15.1670000 2
20542 20544 20546 20548 1 180.0000771 15.1670000 2
20545 20544 20546 20547 1 180.0000771 15.1670000 2
20545 20544 20546 20548 1 180.0000771 15.1670000 2
20542 20546 20544 20545 4 180.0000771 4.6024000 2
20539 20546 20548 20549 4 180.0000771 4.6024000 2
20544 20546 20548 20549 1 180.0000771 15.1670000 2
20547 20546 20548 20549 1 180.0000771 15.1670000 2
20539 20548 20546 20544 1 180.0000771 15.1670000 2
20539 20548 20546 20547 1 180.0000771 15.1670000 2
20544 20548 20546 20547 4 180.0000771 4.6024000 2
20550 20551 20552 20553 1 180.0000771 15.1670000 2
20550 20551 20552 20554 1 180.0000771 15.1670000 2
20553 20551 20552 20554 4 180.0000771 4.6024000 2
20550 20551 20560 20552 4 180.0000771 4.6024000 2
20550 20551 20560 20558 1 180.0000771 15.1670000 2
20550 20551 20560 20561 1 180.0000771 15.1670000 2
20552 20551 20560 20558 1 180.0000771 15.1670000 2
20552 20551 20560 20561 1 180.0000771 15.1670000 2
20553 20552 20551 20560 1 180.0000771 15.1670000 2
20554 20552 20551 20560 1 180.0000771 15.1670000 2
20551 20552 20554 20555 1 180.0000771 15.1670000 2
20551 20552 20554 20556 1 180.0000771 15.1670000 2
20553 20552 20554 20555 1 180.0000771 15.1670000 2
20553 20552 20554 20556 1 180.0000771 15.1670000 2
20552 20554 20556 20557 1 180.0000771 15.1670000 2
20552 20554 20556 20558 1 180.0000771 15.1670000 2
20555 20554 20556 20557 1 180.0000771 15.1670000 2
20555 20554 20556 20558 1 180.0000771 15.1670000 2
20552 20556 20554 20555 4 180.0000771 4.6024000 2
20554 20556 20558 20559 1 180.0000771 15.1670000 2
20554 20556 20558 20560 1 180.0000771 15.1670000 2
20557 20556 20558 20559 1 180.0000771 15.1670000 2
20557 20556 20558 20560 1 180.0000771 15.1670000 2
20554 20558 20556 20557 4 180.0000771 4.6024000 2
20551 20558 20560 20561 4 180.0000771 4.6024000 2
20556 20558 20560 20561 1 180.0000771 15.1670000 2
20559 20558 20560 20561 1 180.0000771 15.1670000 2
20551 20560 20558 20556 1 180.0000771 15.1670000 2
20551 20560 20558 20559 1 180.0000771 15.1670000 2
20556 20560 20558 20559 4 180.0000771 4.6024000 2
20562 20563 20564 20565 1 180.0000771 15.1670000 2
20562 20563 20564 20566 1 180.0000771 15.1670000 2
20565 20563 20564 20566 4 180.0000771 4.6024000 2
20562 20563 20572 20564 4 180.0000771 4.6024000 2
20562 20563 20572 20570 1 180.0000771 15.1670000 2
20562 20563 20572 20573 1 180.0000771 15.1670000 2
20564 20563 20572 20570 1 180.0000771 15.1670000 2
20564 20563 20572 20573 1 180.0000771 15.1670000 2
20565 20564 20563 20572 1 180.0000771 15.1670000 2
20566 20564 20563 20572 1 180.0000771 15.1670000 2
20563 20564 20566 20567 1 180.0000771 15.1670000 2
20563 20564 20566 20568 1 180.0000771 15.1670000 2
20565 20564 20566 20567 1 180.0000771 15.1670000 2
20565 20564 20566 20568 1 180.0000771 15.1670000 2
20564 20566 20568 20569 1 180.0000771 15.1670000 2
20564 20566 20568 20570 1 180.0000771 15.1670000 2
20567 20566 20568 20569 1 180.0000771 15.1670000 2
20567 20566 20568 20570 1 180.0000771 15.1670000 2
20564 20568 20566 20567 4 180.0000771 4.6024000 2
20566 20568 20570 20571 1 180.0000771 15.1670000 2
20566 20568 20570 20572 1 180.0000771 15.1670000 2
20569 20568 20570 20571 1 180.0000771 15.1670000 2
20569 20568 20570 20572 1 180.0000771 15.1670000 2
20566 20570 20568 20569 4 180.0000771 4.6024000 2
20563 20570 20572 20573 4 180.0000771 4.6024000 2
20568 20570 20572 20573 1 180.0000771 15.1670000 2
20571 20570 20572 20573 1 180.0000771 15.1670000 2
20563 20572 20570 20568 1 180.0000771 15.1670000 2
20563 20572 20570 20571 1 180.0000771 15.1670000 2
20568 20572 20570 20571 4 180.0000771 4.6024000 2
20574 20575 20576 20577 1 180.0000771 15.1670000 2
20574 20575 20576 20578 1 180.0000771 15.1670000 2
20577 20575 20576 20578 4 180.0000771 4.6024000 2
20574 20575 20584 20576 4 180.0000771 4.6024000 2
20574 20575 20584 20582 1 180.0000771 15.1670000 2
20574 20575 20584 20585 1 180.0000771 15.1670000 2
20576 20575 20584 20582 1 180.0000771 15.1670000 2
20576 20575 20584 20585 1 180.0000771 15.1670000 2
20577 20576 20575 20584 1 180.0000771 15.1670000 2
20578 20576 20575 20584 1 180.0000771 15.1670000 2
20575 20576 20578 20579 1 180.0000771 15.1670000 2
20575 20576 20578 20580 1 180.0000771 15.1670000 2
20577 20576 20578 20579 1 180.0000771 15.1670000 2
20577 20576 20578 20580 1 180.0000771 15.1670000 2
20576 20578 20580 20581 1 180.0000771 15.1670000 2
20576 20578 20580 20582 1 180.0000771 15.1670000 2
20579 20578 20580 20581 1 180.0000771 15.1670000 2
20579 20578 20580 20582 1 180.0000771 15.1670000 2
20576 20580 20578 20579 4 180.0000771 4.6024000 2
20578 20580 20582 20583 1 180.0000771 15.1670000 2
20578 20580 20582 20584 1 180.0000771 15.1670000 2
20581 20580 20582 20583 1 180.0000771 15.1670000 2
20581 20580 20582 20584 1 180.0000771 15.1670000 2
20578 20582 20580 20581 4 180.0000771 4.6024000 2
20575 20582 20584 20585 4 180.0000771 4.6024000 2
20580 20582 20584 20585 1 180.0000771 15.1670000 2
20583 20582 20584 20585 1 180.0000771 15.1670000 2
20575 20584 20582 20580 1 180.0000771 15.1670000 2
20575 20584 20582 20583 1 180.0000771 15.1670000 2
20580 20584 20582 20583 4 180.0000771 4.6024000 2
20586 20587 20588 20589 1 180.0000771 15.1670000 2
20586 20587 20588 20590 1 180.0000771 15.1670000 2
20589 20587 20588 20590 4 180.0000771 4.6024000 2
20586 20587 20596 20588 4 180.0000771 4.6024000 2
20586 20587 20596 20594 1 180.0000771 15.1670000 2
20586 20587 20596 20597 1 180.0000771 15.1670000 2
20588 20587 20596 20594 1 180.0000771 15.1670000 2
20588 20587 20596 20597 1 180.0000771 15.1670000 2
20589 20588 20587 20596 1 180.0000771 15.1670000 2
20590 20588 20587 20596 1 180.0000771 15.1670000 2
20587 20588 20590 20591 1 180.0000771 15.1670000 2
20587 20588 20590 20592 1 180.0000771 15.1670000 2
20589 20588 20590 20591 1 180.0000771 15.1670000 2
20589 20588 20590 20592 1 180.0000771 15.1670000 2
20588 20590 20592 20593 1 180.0000771 15.1670000 2
20588 20590 20592 20594 1 180.0000771 15.1670000 2
20591 20590 20592 20593 1 180.0000771 15.1670000 2
20591 20590 20592 20594 1 180.0000771 15.1670000 2
20588 20592 20590 20591 4 180.0000771 4.6024000 2
20590 20592 20594 20595 1 180.0000771 15.1670000 2
20590 20592 20594 20596 1 180.0000771 15.1670000 2
20593 20592 20594 20595 1 180.0000771 15.1670000 2
20593 20592 20594 20596 1 180.0000771 15.1670000 2
20590 20594 20592 20593 4 180.0000771 4.6024000 2
20587 20594 20596 20597 4 180.0000771 4.6024000 2
20592 20594 20596 20597 1 180.0000771 15.1670000 2
20595 20594 20596 20597 1 180.0000771 15.1670000 2
20587 20596 20594 20592 1 180.0000771 15.1670000 2
20587 20596 20594 20595 1 180.0000771 15.1670000 2
20592 20596 20594 20595 4 180.0000771 4.6024000 2
20598 20599 20600 20601 1 180.0000771 15.1670000 2
20598 20599 20600 20602 1 180.0000771 15.1670000 2
20601 20599 20600 20602 4 180.0000771 4.6024000 2
20598 20599 20608 20600 4 180.0000771 4.6024000 2
20598 20599 20608 20606 1 180.0000771 15.1670000 2
20598 20599 20608 20609 1 180.0000771 15.1670000 2
20600 20599 20608 20606 1 180.0000771 15.1670000 2
20600 20599 20608 20609 1 180.0000771 15.1670000 2
20601 20600 20599 20608 1 180.0000771 15.1670000 2
20602 20600 20599 20608 1 180.0000771 15.1670000 2
20599 20600 20602 20603 1 180.0000771 15.1670000 2
20599 20600 20602 20604 1 180.0000771 15.1670000 2
20601 20600 20602 20603 1 180.0000771 15.1670000 2
20601 20600 20602 20604 1 180.0000771 15.1670000 2
20600 20602 20604 20605 1 180.0000771 15.1670000 2
20600 20602 20604 20606 1 180.0000771 15.1670000 2
20603 20602 20604 20605 1 180.0000771 15.1670000 2
20603 20602 20604 20606 1 180.0000771 15.1670000 2
20600 20604 20602 20603 4 180.0000771 4.6024000 2
20602 20604 20606 20607 1 180.0000771 15.1670000 2
20602 20604 20606 20608 1 180.0000771 15.1670000 2
20605 20604 20606 20607 1 180.0000771 15.1670000 2
20605 20604 20606 20608 1 180.0000771 15.1670000 2
20602 20606 20604 20605 4 180.0000771 4.6024000 2
20599 20606 20608 20609 4 180.0000771 4.6024000 2
20604 20606 20608 20609 1 180.0000771 15.1670000 2
20607 20606 20608 20609 1 180.0000771 15.1670000 2
20599 20608 20606 20604 1 180.0000771 15.1670000 2
20599 20608 20606 20607 1 180.0000771 15.1670000 2
20604 20608 20606 20607 4 180.0000771 4.6024000 2
20610 20611 20612 20613 1 180.0000771 15.1670000 2
20610 20611 20612 20614 1 180.0000771 15.1670000 2
20613 20611 20612 20614 4 180.0000771 4.6024000 2
20610 20611 20620 20612 4 180.0000771 4.6024000 2
20610 20611 20620 20618 1 180.0000771 15.1670000 2
20610 20611 20620 20621 1 180.0000771 15.1670000 2
20612 20611 20620 20618 1 180.0000771 15.1670000 2
20612 20611 20620 20621 1 180.0000771 15.1670000 2
20613 20612 20611 20620 1 180.0000771 15.1670000 2
20614 20612 20611 20620 1 180.0000771 15.1670000 2
20611 20612 20614 20615 1 180.0000771 15.1670000 2
20611 20612 20614 20616 1 180.0000771 15.1670000 2
20613 20612 20614 20615 1 180.0000771 15.1670000 2
20613 20612 20614 20616 1 180.0000771 15.1670000 2
20612 20614 20616 20617 1 180.0000771 15.1670000 2
20612 20614 20616 20618 1 180.0000771 15.1670000 2
20615 20614 20616 20617 1 180.0000771 15.1670000 2
20615 20614 20616 20618 1 180.0000771 15.1670000 2
20612 20616 20614 20615 4 180.0000771 4.6024000 2
20614 20616 20618 20619 1 180.0000771 15.1670000 2
20614 20616 20618 20620 1 180.0000771 15.1670000 2
20617 20616 20618 20619 1 180.0000771 15.1670000 2
20617 20616 20618 20620 1 180.0000771 15.1670000 2
20614 20618 20616 20617 4 180.0000771 4.6024000 2
20611 20618 20620 20621 4 180.0000771 4.6024000 2
20616 20618 20620 20621 1 180.0000771 15.1670000 2
20619 20618 20620 20621 1 180.0000771 15.1670000 2
20611 20620 20618 20616 1 180.0000771 15.1670000 2
20611 20620 20618 20619 1 180.0000771 15.1670000 2
20616 20620 20618 20619 4 180.0000771 4.6024000 2
20622 20623 20624 20625 1 180.0000771 15.1670000 2
20622 20623 20624 20626 1 180.0000771 15.1670000 2
20625 20623 20624 20626 4 180.0000771 4.6024000 2
20622 20623 20632 20624 4 180.0000771 4.6024000 2
20622 20623 20632 20630 1 180.0000771 15.1670000 2
20622 20623 20632 20633 1 180.0000771 15.1670000 2
20624 20623 20632 20630 1 180.0000771 15.1670000 2
20624 20623 20632 20633 1 180.0000771 15.1670000 2
20625 20624 20623 20632 1 180.0000771 15.1670000 2
20626 20624 20623 20632 1 180.0000771 15.1670000 2
20623 20624 20626 20627 1 180.0000771 15.1670000 2
20623 20624 20626 20628 1 180.0000771 15.1670000 2
20625 20624 20626 20627 1 180.0000771 15.1670000 2
20625 20624 20626 20628 1 180.0000771 15.1670000 2
20624 20626 20628 20629 1 180.0000771 15.1670000 2
20624 20626 20628 20630 1 180.0000771 15.1670000 2
20627 20626 20628 20629 1 180.0000771 15.1670000 2
20627 20626 20628 20630 1 180.0000771 15.1670000 2
20624 20628 20626 20627 4 180.0000771 4.6024000 2
20626 20628 20630 20631 1 180.0000771 15.1670000 2
20626 20628 20630 20632 1 180.0000771 15.1670000 2
20629 20628 20630 20631 1 180.0000771 15.1670000 2
20629 20628 20630 20632 1 180.0000771 15.1670000 2
20626 20630 20628 20629 4 180.0000771 4.6024000 2
20623 20630 20632 20633 4 180.0000771 4.6024000 2
20628 20630 20632 20633 1 180.0000771 15.1670000 2
20631 20630 20632 20633 1 180.0000771 15.1670000 2
20623 20632 20630 20628 1 180.0000771 15.1670000 2
20623 20632 20630 20631 1 180.0000771 15.1670000 2
20628 20632 20630 20631 4 180.0000771 4.6024000 2
20634 20635 20636 20637 1 180.0000771 15.1670000 2
20634 20635 20636 20638 1 180.0000771 15.1670000 2
20637 20635 20636 20638 4 180.0000771 4.6024000 2
20634 20635 20644 20636 4 180.0000771 4.6024000 2
20634 20635 20644 20642 1 180.0000771 15.1670000 2
20634 20635 20644 20645 1 180.0000771 15.1670000 2
20636 20635 20644 20642 1 180.0000771 15.1670000 2
20636 20635 20644 20645 1 180.0000771 15.1670000 2
20637 20636 20635 20644 1 180.0000771 15.1670000 2
20638 20636 20635 20644 1 180.0000771 15.1670000 2
20635 20636 20638 20639 1 180.0000771 15.1670000 2
20635 20636 20638 20640 1 180.0000771 15.1670000 2
20637 20636 20638 20639 1 180.0000771 15.1670000 2
20637 20636 20638 20640 1 180.0000771 15.1670000 2
20636 20638 20640 20641 1 180.0000771 15.1670000 2
20636 20638 20640 20642 1 180.0000771 15.1670000 2
20639 20638 20640 20641 1 180.0000771 15.1670000 2
20639 20638 20640 20642 1 180.0000771 15.1670000 2
20636 20640 20638 20639 4 180.0000771 4.6024000 2
20638 20640 20642 20643 1 180.0000771 15.1670000 2
20638 20640 20642 20644 1 180.0000771 15.1670000 2
20641 20640 20642 20643 1 180.0000771 15.1670000 2
20641 20640 20642 20644 1 180.0000771 15.1670000 2
20638 20642 20640 20641 4 180.0000771 4.6024000 2
20635 20642 20644 20645 4 180.0000771 4.6024000 2
20640 20642 20644 20645 1 180.0000771 15.1670000 2
20643 20642 20644 20645 1 180.0000771 15.1670000 2
20635 20644 20642 20640 1 180.0000771 15.1670000 2
20635 20644 20642 20643 1 180.0000771 15.1670000 2
20640 20644 20642 20643 4 180.0000771 4.6024000 2
20646 20647 20648 20649 1 180.0000771 15.1670000 2
20646 20647 20648 20650 1 180.0000771 15.1670000 2
20649 20647 20648 20650 4 180.0000771 4.6024000 2
20646 20647 20656 20648 4 180.0000771 4.6024000 2
20646 20647 20656 20654 1 180.0000771 15.1670000 2
20646 20647 20656 20657 1 180.0000771 15.1670000 2
20648 20647 20656 20654 1 180.0000771 15.1670000 2
20648 20647 20656 20657 1 180.0000771 15.1670000 2
20649 20648 20647 20656 1 180.0000771 15.1670000 2
20650 20648 20647 20656 1 180.0000771 15.1670000 2
20647 20648 20650 20651 1 180.0000771 15.1670000 2
20647 20648 20650 20652 1 180.0000771 15.1670000 2
20649 20648 20650 20651 1 180.0000771 15.1670000 2
20649 20648 20650 20652 1 180.0000771 15.1670000 2
20648 20650 20652 20653 1 180.0000771 15.1670000 2
20648 20650 20652 20654 1 180.0000771 15.1670000 2
20651 20650 20652 20653 1 180.0000771 15.1670000 2
20651 20650 20652 20654 1 180.0000771 15.1670000 2
20648 20652 20650 20651 4 180.0000771 4.6024000 2
20650 20652 20654 20655 1 180.0000771 15.1670000 2
20650 20652 20654 20656 1 180.0000771 15.1670000 2
20653 20652 20654 20655 1 180.0000771 15.1670000 2
20653 20652 20654 20656 1 180.0000771 15.1670000 2
20650 20654 20652 20653 4 180.0000771 4.6024000 2
20647 20654 20656 20657 4 180.0000771 4.6024000 2
20652 20654 20656 20657 1 180.0000771 15.1670000 2
20655 20654 20656 20657 1 180.0000771 15.1670000 2
20647 20656 20654 20652 1 180.0000771 15.1670000 2
20647 20656 20654 20655 1 180.0000771 15.1670000 2
20652 20656 20654 20655 4 180.0000771 4.6024000 2
20658 20659 20660 20661 1 180.0000771 15.1670000 2
20658 20659 20660 20662 1 180.0000771 15.1670000 2
20661 20659 20660 20662 4 180.0000771 4.6024000 2
20658 20659 20668 20660 4 180.0000771 4.6024000 2
20658 20659 20668 20666 1 180.0000771 15.1670000 2
20658 20659 20668 20669 1 180.0000771 15.1670000 2
20660 20659 20668 20666 1 180.0000771 15.1670000 2
20660 20659 20668 20669 1 180.0000771 15.1670000 2
20661 20660 20659 20668 1 180.0000771 15.1670000 2
20662 20660 20659 20668 1 180.0000771 15.1670000 2
20659 20660 20662 20663 1 180.0000771 15.1670000 2
20659 20660 20662 20664 1 180.0000771 15.1670000 2
20661 20660 20662 20663 1 180.0000771 15.1670000 2
20661 20660 20662 20664 1 180.0000771 15.1670000 2
20660 20662 20664 20665 1 180.0000771 15.1670000 2
20660 20662 20664 20666 1 180.0000771 15.1670000 2
20663 20662 20664 20665 1 180.0000771 15.1670000 2
20663 20662 20664 20666 1 180.0000771 15.1670000 2
20660 20664 20662 20663 4 180.0000771 4.6024000 2
20662 20664 20666 20667 1 180.0000771 15.1670000 2
20662 20664 20666 20668 1 180.0000771 15.1670000 2
20665 20664 20666 20667 1 180.0000771 15.1670000 2
20665 20664 20666 20668 1 180.0000771 15.1670000 2
20662 20666 20664 20665 4 180.0000771 4.6024000 2
20659 20666 20668 20669 4 180.0000771 4.6024000 2
20664 20666 20668 20669 1 180.0000771 15.1670000 2
20667 20666 20668 20669 1 180.0000771 15.1670000 2
20659 20668 20666 20664 1 180.0000771 15.1670000 2
20659 20668 20666 20667 1 180.0000771 15.1670000 2
20664 20668 20666 20667 4 180.0000771 4.6024000 2
20670 20671 20672 20673 1 180.0000771 15.1670000 2
20670 20671 20672 20674 1 180.0000771 15.1670000 2
20673 20671 20672 20674 4 180.0000771 4.6024000 2
20670 20671 20680 20672 4 180.0000771 4.6024000 2
20670 20671 20680 20678 1 180.0000771 15.1670000 2
20670 20671 20680 20681 1 180.0000771 15.1670000 2
20672 20671 20680 20678 1 180.0000771 15.1670000 2
20672 20671 20680 20681 1 180.0000771 15.1670000 2
20673 20672 20671 20680 1 180.0000771 15.1670000 2
20674 20672 20671 20680 1 180.0000771 15.1670000 2
20671 20672 20674 20675 1 180.0000771 15.1670000 2
20671 20672 20674 20676 1 180.0000771 15.1670000 2
20673 20672 20674 20675 1 180.0000771 15.1670000 2
20673 20672 20674 20676 1 180.0000771 15.1670000 2
20672 20674 20676 20677 1 180.0000771 15.1670000 2
20672 20674 20676 20678 1 180.0000771 15.1670000 2
20675 20674 20676 20677 1 180.0000771 15.1670000 2
20675 20674 20676 20678 1 180.0000771 15.1670000 2
20672 20676 20674 20675 4 180.0000771 4.6024000 2
20674 20676 20678 20679 1 180.0000771 15.1670000 2
20674 20676 20678 20680 1 180.0000771 15.1670000 2
20677 20676 20678 20679 1 180.0000771 15.1670000 2
20677 20676 20678 20680 1 180.0000771 15.1670000 2
20674 20678 20676 20677 4 180.0000771 4.6024000 2
20671 20678 20680 20681 4 180.0000771 4.6024000 2
20676 20678 20680 20681 1 180.0000771 15.1670000 2
20679 20678 20680 20681 1 180.0000771 15.1670000 2
20671 20680 20678 20676 1 180.0000771 15.1670000 2
20671 20680 20678 20679 1 180.0000771 15.1670000 2
20676 20680 20678 20679 4 180.0000771 4.6024000 2
20682 20683 20684 20685 1 180.0000771 15.1670000 2
20682 20683 20684 20686 1 180.0000771 15.1670000 2
20685 20683 20684 20686 4 180.0000771 4.6024000 2
20682 20683 20692 20684 4 180.0000771 4.6024000 2
20682 20683 20692 20690 1 180.0000771 15.1670000 2
20682 20683 20692 20693 1 180.0000771 15.1670000 2
20684 20683 20692 20690 1 180.0000771 15.1670000 2
20684 20683 20692 20693 1 180.0000771 15.1670000 2
20685 20684 20683 20692 1 180.0000771 15.1670000 2
20686 20684 20683 20692 1 180.0000771 15.1670000 2
20683 20684 20686 20687 1 180.0000771 15.1670000 2
20683 20684 20686 20688 1 180.0000771 15.1670000 2
20685 20684 20686 20687 1 180.0000771 15.1670000 2
20685 20684 20686 20688 1 180.0000771 15.1670000 2
20684 20686 20688 20689 1 180.0000771 15.1670000 2
20684 20686 20688 20690 1 180.0000771 15.1670000 2
20687 20686 20688 20689 1 180.0000771 15.1670000 2
20687 20686 20688 20690 1 180.0000771 15.1670000 2
20684 20688 20686 20687 4 180.0000771 4.6024000 2
20686 20688 20690 20691 1 180.0000771 15.1670000 2
20686 20688 20690 20692 1 180.0000771 15.1670000 2
20689 20688 20690 20691 1 180.0000771 15.1670000 2
20689 20688 20690 20692 1 180.0000771 15.1670000 2
20686 20690 20688 20689 4 180.0000771 4.6024000 2
20683 20690 20692 20693 4 180.0000771 4.6024000 2
20688 20690 20692 20693 1 180.0000771 15.1670000 2
20691 20690 20692 20693 1 180.0000771 15.1670000 2
20683 20692 20690 20688 1 180.0000771 15.1670000 2
20683 20692 20690 20691 1 180.0000771 15.1670000 2
20688 20692 20690 20691 4 180.0000771 4.6024000 2
20694 20695 20696 20697 1 180.0000771 15.1670000 2
20694 20695 20696 20698 1 180.0000771 15.1670000 2
20697 20695 20696 20698 4 180.0000771 4.6024000 2
20694 20695 20704 20696 4 180.0000771 4.6024000 2
20694 20695 20704 20702 1 180.0000771 15.1670000 2
20694 20695 20704 20705 1 180.0000771 15.1670000 2
20696 20695 20704 20702 1 180.0000771 15.1670000 2
20696 20695 20704 20705 1 180.0000771 15.1670000 2
20697 20696 20695 20704 1 180.0000771 15.1670000 2
20698 20696 20695 20704 1 180.0000771 15.1670000 2
20695 20696 20698 20699 1 180.0000771 15.1670000 2
20695 20696 20698 20700 1 180.0000771 15.1670000 2
20697 20696 20698 20699 1 180.0000771 15.1670000 2
20697 20696 20698 20700 1 180.0000771 15.1670000 2
20696 20698 20700 20701 1 180.0000771 15.1670000 2
20696 20698 20700 20702 1 180.0000771 15.1670000 2
20699 20698 20700 20701 1 180.0000771 15.1670000 2
20699 20698 20700 20702 1 180.0000771 15.1670000 2
20696 20700 20698 20699 4 180.0000771 4.6024000 2
20698 20700 20702 20703 1 180.0000771 15.1670000 2
20698 20700 20702 20704 1 180.0000771 15.1670000 2
20701 20700 20702 20703 1 180.0000771 15.1670000 2
20701 20700 20702 20704 1 180.0000771 15.1670000 2
20698 20702 20700 20701 4 180.0000771 4.6024000 2
20695 20702 20704 20705 4 180.0000771 4.6024000 2
20700 20702 20704 20705 1 180.0000771 15.1670000 2
20703 20702 20704 20705 1 180.0000771 15.1670000 2
20695 20704 20702 20700 1 180.0000771 15.1670000 2
20695 20704 20702 20703 1 180.0000771 15.1670000 2
20700 20704 20702 20703 4 180.0000771 4.6024000 2
20706 20707 20708 20709 1 180.0000771 15.1670000 2
20706 20707 20708 20710 1 180.0000771 15.1670000 2
20709 20707 20708 20710 4 180.0000771 4.6024000 2
20706 20707 20716 20708 4 180.0000771 4.6024000 2
20706 20707 20716 20714 1 180.0000771 15.1670000 2
20706 20707 20716 20717 1 180.0000771 15.1670000 2
20708 20707 20716 20714 1 180.0000771 15.1670000 2
20708 20707 20716 20717 1 180.0000771 15.1670000 2
20709 20708 20707 20716 1 180.0000771 15.1670000 2
20710 20708 20707 20716 1 180.0000771 15.1670000 2
20707 20708 20710 20711 1 180.0000771 15.1670000 2
20707 20708 20710 20712 1 180.0000771 15.1670000 2
20709 20708 20710 20711 1 180.0000771 15.1670000 2
20709 20708 20710 20712 1 180.0000771 15.1670000 2
20708 20710 20712 20713 1 180.0000771 15.1670000 2
20708 20710 20712 20714 1 180.0000771 15.1670000 2
20711 20710 20712 20713 1 180.0000771 15.1670000 2
20711 20710 20712 20714 1 180.0000771 15.1670000 2
20708 20712 20710 20711 4 180.0000771 4.6024000 2
20710 20712 20714 20715 1 180.0000771 15.1670000 2
20710 20712 20714 20716 1 180.0000771 15.1670000 2
20713 20712 20714 20715 1 180.0000771 15.1670000 2
20713 20712 20714 20716 1 180.0000771 15.1670000 2
20710 20714 20712 20713 4 180.0000771 4.6024000 2
20707 20714 20716 20717 4 180.0000771 4.6024000 2
20712 20714 20716 20717 1 180.0000771 15.1670000 2
20715 20714 20716 20717 1 180.0000771 15.1670000 2
20707 20716 20714 20712 1 180.0000771 15.1670000 2
20707 20716 20714 20715 1 180.0000771 15.1670000 2
20712 20716 20714 20715 4 180.0000771 4.6024000 2
20718 20719 20720 20721 1 180.0000771 15.1670000 2
20718 20719 20720 20722 1 180.0000771 15.1670000 2
20721 20719 20720 20722 4 180.0000771 4.6024000 2
20718 20719 20728 20720 4 180.0000771 4.6024000 2
20718 20719 20728 20726 1 180.0000771 15.1670000 2
20718 20719 20728 20729 1 180.0000771 15.1670000 2
20720 20719 20728 20726 1 180.0000771 15.1670000 2
20720 20719 20728 20729 1 180.0000771 15.1670000 2
20721 20720 20719 20728 1 180.0000771 15.1670000 2
20722 20720 20719 20728 1 180.0000771 15.1670000 2
20719 20720 20722 20723 1 180.0000771 15.1670000 2
20719 20720 20722 20724 1 180.0000771 15.1670000 2
20721 20720 20722 20723 1 180.0000771 15.1670000 2
20721 20720 20722 20724 1 180.0000771 15.1670000 2
20720 20722 20724 20725 1 180.0000771 15.1670000 2
20720 20722 20724 20726 1 180.0000771 15.1670000 2
20723 20722 20724 20725 1 180.0000771 15.1670000 2
20723 20722 20724 20726 1 180.0000771 15.1670000 2
20720 20724 20722 20723 4 180.0000771 4.6024000 2
20722 20724 20726 20727 1 180.0000771 15.1670000 2
20722 20724 20726 20728 1 180.0000771 15.1670000 2
20725 20724 20726 20727 1 180.0000771 15.1670000 2
20725 20724 20726 20728 1 180.0000771 15.1670000 2
20722 20726 20724 20725 4 180.0000771 4.6024000 2
20719 20726 20728 20729 4 180.0000771 4.6024000 2
20724 20726 20728 20729 1 180.0000771 15.1670000 2
20727 20726 20728 20729 1 180.0000771 15.1670000 2
20719 20728 20726 20724 1 180.0000771 15.1670000 2
20719 20728 20726 20727 1 180.0000771 15.1670000 2
20724 20728 20726 20727 4 180.0000771 4.6024000 2
20730 20731 20732 20733 1 180.0000771 15.1670000 2
20730 20731 20732 20734 1 180.0000771 15.1670000 2
20733 20731 20732 20734 4 180.0000771 4.6024000 2
20730 20731 20740 20732 4 180.0000771 4.6024000 2
20730 20731 20740 20738 1 180.0000771 15.1670000 2
20730 20731 20740 20741 1 180.0000771 15.1670000 2
20732 20731 20740 20738 1 180.0000771 15.1670000 2
20732 20731 20740 20741 1 180.0000771 15.1670000 2
20733 20732 20731 20740 1 180.0000771 15.1670000 2
20734 20732 20731 20740 1 180.0000771 15.1670000 2
20731 20732 20734 20735 1 180.0000771 15.1670000 2
20731 20732 20734 20736 1 180.0000771 15.1670000 2
20733 20732 20734 20735 1 180.0000771 15.1670000 2
20733 20732 20734 20736 1 180.0000771 15.1670000 2
20732 20734 20736 20737 1 180.0000771 15.1670000 2
20732 20734 20736 20738 1 180.0000771 15.1670000 2
20735 20734 20736 20737 1 180.0000771 15.1670000 2
20735 20734 20736 20738 1 180.0000771 15.1670000 2
20732 20736 20734 20735 4 180.0000771 4.6024000 2
20734 20736 20738 20739 1 180.0000771 15.1670000 2
20734 20736 20738 20740 1 180.0000771 15.1670000 2
20737 20736 20738 20739 1 180.0000771 15.1670000 2
20737 20736 20738 20740 1 180.0000771 15.1670000 2
20734 20738 20736 20737 4 180.0000771 4.6024000 2
20731 20738 20740 20741 4 180.0000771 4.6024000 2
20736 20738 20740 20741 1 180.0000771 15.1670000 2
20739 20738 20740 20741 1 180.0000771 15.1670000 2
20731 20740 20738 20736 1 180.0000771 15.1670000 2
20731 20740 20738 20739 1 180.0000771 15.1670000 2
20736 20740 20738 20739 4 180.0000771 4.6024000 2
20742 20743 20744 20745 1 180.0000771 15.1670000 2
20742 20743 20744 20746 1 180.0000771 15.1670000 2
20745 20743 20744 20746 4 180.0000771 4.6024000 2
20742 20743 20752 20744 4 180.0000771 4.6024000 2
20742 20743 20752 20750 1 180.0000771 15.1670000 2
20742 20743 20752 20753 1 180.0000771 15.1670000 2
20744 20743 20752 20750 1 180.0000771 15.1670000 2
20744 20743 20752 20753 1 180.0000771 15.1670000 2
20745 20744 20743 20752 1 180.0000771 15.1670000 2
20746 20744 20743 20752 1 180.0000771 15.1670000 2
20743 20744 20746 20747 1 180.0000771 15.1670000 2
20743 20744 20746 20748 1 180.0000771 15.1670000 2
20745 20744 20746 20747 1 180.0000771 15.1670000 2
20745 20744 20746 20748 1 180.0000771 15.1670000 2
20744 20746 20748 20749 1 180.0000771 15.1670000 2
20744 20746 20748 20750 1 180.0000771 15.1670000 2
20747 20746 20748 20749 1 180.0000771 15.1670000 2
20747 20746 20748 20750 1 180.0000771 15.1670000 2
20744 20748 20746 20747 4 180.0000771 4.6024000 2
20746 20748 20750 20751 1 180.0000771 15.1670000 2
20746 20748 20750 20752 1 180.0000771 15.1670000 2
20749 20748 20750 20751 1 180.0000771 15.1670000 2
20749 20748 20750 20752 1 180.0000771 15.1670000 2
20746 20750 20748 20749 4 180.0000771 4.6024000 2
20743 20750 20752 20753 4 180.0000771 4.6024000 2
20748 20750 20752 20753 1 180.0000771 15.1670000 2
20751 20750 20752 20753 1 180.0000771 15.1670000 2
20743 20752 20750 20748 1 180.0000771 15.1670000 2
20743 20752 20750 20751 1 180.0000771 15.1670000 2
20748 20752 20750 20751 4 180.0000771 4.6024000 2
20754 20755 20756 20757 1 180.0000771 15.1670000 2
20754 20755 20756 20758 1 180.0000771 15.1670000 2
20757 20755 20756 20758 4 180.0000771 4.6024000 2
20754 20755 20764 20756 4 180.0000771 4.6024000 2
20754 20755 20764 20762 1 180.0000771 15.1670000 2
20754 20755 20764 20765 1 180.0000771 15.1670000 2
20756 20755 20764 20762 1 180.0000771 15.1670000 2
20756 20755 20764 20765 1 180.0000771 15.1670000 2
20757 20756 20755 20764 1 180.0000771 15.1670000 2
20758 20756 20755 20764 1 180.0000771 15.1670000 2
20755 20756 20758 20759 1 180.0000771 15.1670000 2
20755 20756 20758 20760 1 180.0000771 15.1670000 2
20757 20756 20758 20759 1 180.0000771 15.1670000 2
20757 20756 20758 20760 1 180.0000771 15.1670000 2
20756 20758 20760 20761 1 180.0000771 15.1670000 2
20756 20758 20760 20762 1 180.0000771 15.1670000 2
20759 20758 20760 20761 1 180.0000771 15.1670000 2
20759 20758 20760 20762 1 180.0000771 15.1670000 2
20756 20760 20758 20759 4 180.0000771 4.6024000 2
20758 20760 20762 20763 1 180.0000771 15.1670000 2
20758 20760 20762 20764 1 180.0000771 15.1670000 2
20761 20760 20762 20763 1 180.0000771 15.1670000 2
20761 20760 20762 20764 1 180.0000771 15.1670000 2
20758 20762 20760 20761 4 180.0000771 4.6024000 2
20755 20762 20764 20765 4 180.0000771 4.6024000 2
20760 20762 20764 20765 1 180.0000771 15.1670000 2
20763 20762 20764 20765 1 180.0000771 15.1670000 2
20755 20764 20762 20760 1 180.0000771 15.1670000 2
20755 20764 20762 20763 1 180.0000771 15.1670000 2
20760 20764 20762 20763 4 180.0000771 4.6024000 2
20766 20767 20768 20769 1 180.0000771 15.1670000 2
20766 20767 20768 20770 1 180.0000771 15.1670000 2
20769 20767 20768 20770 4 180.0000771 4.6024000 2
20766 20767 20776 20768 4 180.0000771 4.6024000 2
20766 20767 20776 20774 1 180.0000771 15.1670000 2
20766 20767 20776 20777 1 180.0000771 15.1670000 2
20768 20767 20776 20774 1 180.0000771 15.1670000 2
20768 20767 20776 20777 1 180.0000771 15.1670000 2
20769 20768 20767 20776 1 180.0000771 15.1670000 2
20770 20768 20767 20776 1 180.0000771 15.1670000 2
20767 20768 20770 20771 1 180.0000771 15.1670000 2
20767 20768 20770 20772 1 180.0000771 15.1670000 2
20769 20768 20770 20771 1 180.0000771 15.1670000 2
20769 20768 20770 20772 1 180.0000771 15.1670000 2
20768 20770 20772 20773 1 180.0000771 15.1670000 2
20768 20770 20772 20774 1 180.0000771 15.1670000 2
20771 20770 20772 20773 1 180.0000771 15.1670000 2
20771 20770 20772 20774 1 180.0000771 15.1670000 2
20768 20772 20770 20771 4 180.0000771 4.6024000 2
20770 20772 20774 20775 1 180.0000771 15.1670000 2
20770 20772 20774 20776 1 180.0000771 15.1670000 2
20773 20772 20774 20775 1 180.0000771 15.1670000 2
20773 20772 20774 20776 1 180.0000771 15.1670000 2
20770 20774 20772 20773 4 180.0000771 4.6024000 2
20767 20774 20776 20777 4 180.0000771 4.6024000 2
20772 20774 20776 20777 1 180.0000771 15.1670000 2
20775 20774 20776 20777 1 180.0000771 15.1670000 2
20767 20776 20774 20772 1 180.0000771 15.1670000 2
20767 20776 20774 20775 1 180.0000771 15.1670000 2
20772 20776 20774 20775 4 180.0000771 4.6024000 2
20778 20779 20780 20781 1 180.0000771 15.1670000 2
20778 20779 20780 20782 1 180.0000771 15.1670000 2
20781 20779 20780 20782 4 180.0000771 4.6024000 2
20778 20779 20788 20780 4 180.0000771 4.6024000 2
20778 20779 20788 20786 1 180.0000771 15.1670000 2
20778 20779 20788 20789 1 180.0000771 15.1670000 2
20780 20779 20788 20786 1 180.0000771 15.1670000 2
20780 20779 20788 20789 1 180.0000771 15.1670000 2
20781 20780 20779 20788 1 180.0000771 15.1670000 2
20782 20780 20779 20788 1 180.0000771 15.1670000 2
20779 20780 20782 20783 1 180.0000771 15.1670000 2
20779 20780 20782 20784 1 180.0000771 15.1670000 2
20781 20780 20782 20783 1 180.0000771 15.1670000 2
20781 20780 20782 20784 1 180.0000771 15.1670000 2
20780 20782 20784 20785 1 180.0000771 15.1670000 2
20780 20782 20784 20786 1 180.0000771 15.1670000 2
20783 20782 20784 20785 1 180.0000771 15.1670000 2
20783 20782 20784 20786 1 180.0000771 15.1670000 2
20780 20784 20782 20783 4 180.0000771 4.6024000 2
20782 20784 20786 20787 1 180.0000771 15.1670000 2
20782 20784 20786 20788 1 180.0000771 15.1670000 2
20785 20784 20786 20787 1 180.0000771 15.1670000 2
20785 20784 20786 20788 1 180.0000771 15.1670000 2
20782 20786 20784 20785 4 180.0000771 4.6024000 2
20779 20786 20788 20789 4 180.0000771 4.6024000 2
20784 20786 20788 20789 1 180.0000771 15.1670000 2
20787 20786 20788 20789 1 180.0000771 15.1670000 2
20779 20788 20786 20784 1 180.0000771 15.1670000 2
20779 20788 20786 20787 1 180.0000771 15.1670000 2
20784 20788 20786 20787 4 180.0000771 4.6024000 2
20790 20791 20792 20793 1 180.0000771 15.1670000 2
20790 20791 20792 20794 1 180.0000771 15.1670000 2
20793 20791 20792 20794 4 180.0000771 4.6024000 2
20790 20791 20800 20792 4 180.0000771 4.6024000 2
20790 20791 20800 20798 1 180.0000771 15.1670000 2
20790 20791 20800 20801 1 180.0000771 15.1670000 2
20792 20791 20800 20798 1 180.0000771 15.1670000 2
20792 20791 20800 20801 1 180.0000771 15.1670000 2
20793 20792 20791 20800 1 180.0000771 15.1670000 2
20794 20792 20791 20800 1 180.0000771 15.1670000 2
20791 20792 20794 20795 1 180.0000771 15.1670000 2
20791 20792 20794 20796 1 180.0000771 15.1670000 2
20793 20792 20794 20795 1 180.0000771 15.1670000 2
20793 20792 20794 20796 1 180.0000771 15.1670000 2
20792 20794 20796 20797 1 180.0000771 15.1670000 2
20792 20794 20796 20798 1 180.0000771 15.1670000 2
20795 20794 20796 20797 1 180.0000771 15.1670000 2
20795 20794 20796 20798 1 180.0000771 15.1670000 2
20792 20796 20794 20795 4 180.0000771 4.6024000 2
20794 20796 20798 20799 1 180.0000771 15.1670000 2
20794 20796 20798 20800 1 180.0000771 15.1670000 2
20797 20796 20798 20799 1 180.0000771 15.1670000 2
20797 20796 20798 20800 1 180.0000771 15.1670000 2
20794 20798 20796 20797 4 180.0000771 4.6024000 2
20791 20798 20800 20801 4 180.0000771 4.6024000 2
20796 20798 20800 20801 1 180.0000771 15.1670000 2
20799 20798 20800 20801 1 180.0000771 15.1670000 2
20791 20800 20798 20796 1 180.0000771 15.1670000 2
20791 20800 20798 20799 1 180.0000771 15.1670000 2
20796 20800 20798 20799 4 180.0000771 4.6024000 2
20802 20803 20804 20805 1 180.0000771 15.1670000 2
20802 20803 20804 20806 1 180.0000771 15.1670000 2
20805 20803 20804 20806 4 180.0000771 4.6024000 2
20802 20803 20812 20804 4 180.0000771 4.6024000 2
20802 20803 20812 20810 1 180.0000771 15.1670000 2
20802 20803 20812 20813 1 180.0000771 15.1670000 2
20804 20803 20812 20810 1 180.0000771 15.1670000 2
20804 20803 20812 20813 1 180.0000771 15.1670000 2
20805 20804 20803 20812 1 180.0000771 15.1670000 2
20806 20804 20803 20812 1 180.0000771 15.1670000 2
20803 20804 20806 20807 1 180.0000771 15.1670000 2
20803 20804 20806 20808 1 180.0000771 15.1670000 2
20805 20804 20806 20807 1 180.0000771 15.1670000 2
20805 20804 20806 20808 1 180.0000771 15.1670000 2
20804 20806 20808 20809 1 180.0000771 15.1670000 2
20804 20806 20808 20810 1 180.0000771 15.1670000 2
20807 20806 20808 20809 1 180.0000771 15.1670000 2
20807 20806 20808 20810 1 180.0000771 15.1670000 2
20804 20808 20806 20807 4 180.0000771 4.6024000 2
20806 20808 20810 20811 1 180.0000771 15.1670000 2
20806 20808 20810 20812 1 180.0000771 15.1670000 2
20809 20808 20810 20811 1 180.0000771 15.1670000 2
20809 20808 20810 20812 1 180.0000771 15.1670000 2
20806 20810 20808 20809 4 180.0000771 4.6024000 2
20803 20810 20812 20813 4 180.0000771 4.6024000 2
20808 20810 20812 20813 1 180.0000771 15.1670000 2
20811 20810 20812 20813 1 180.0000771 15.1670000 2
20803 20812 20810 20808 1 180.0000771 15.1670000 2
20803 20812 20810 20811 1 180.0000771 15.1670000 2
20808 20812 20810 20811 4 180.0000771 4.6024000 2
20814 20815 20816 20817 1 180.0000771 15.1670000 2
20814 20815 20816 20818 1 180.0000771 15.1670000 2
20817 20815 20816 20818 4 180.0000771 4.6024000 2
20814 20815 20824 20816 4 180.0000771 4.6024000 2
20814 20815 20824 20822 1 180.0000771 15.1670000 2
20814 20815 20824 20825 1 180.0000771 15.1670000 2
20816 20815 20824 20822 1 180.0000771 15.1670000 2
20816 20815 20824 20825 1 180.0000771 15.1670000 2
20817 20816 20815 20824 1 180.0000771 15.1670000 2
20818 20816 20815 20824 1 180.0000771 15.1670000 2
20815 20816 20818 20819 1 180.0000771 15.1670000 2
20815 20816 20818 20820 1 180.0000771 15.1670000 2
20817 20816 20818 20819 1 180.0000771 15.1670000 2
20817 20816 20818 20820 1 180.0000771 15.1670000 2
20816 20818 20820 20821 1 180.0000771 15.1670000 2
20816 20818 20820 20822 1 180.0000771 15.1670000 2
20819 20818 20820 20821 1 180.0000771 15.1670000 2
20819 20818 20820 20822 1 180.0000771 15.1670000 2
20816 20820 20818 20819 4 180.0000771 4.6024000 2
20818 20820 20822 20823 1 180.0000771 15.1670000 2
20818 20820 20822 20824 1 180.0000771 15.1670000 2
20821 20820 20822 20823 1 180.0000771 15.1670000 2
20821 20820 20822 20824 1 180.0000771 15.1670000 2
20818 20822 20820 20821 4 180.0000771 4.6024000 2
20815 20822 20824 20825 4 180.0000771 4.6024000 2
20820 20822 20824 20825 1 180.0000771 15.1670000 2
20823 20822 20824 20825 1 180.0000771 15.1670000 2
20815 20824 20822 20820 1 180.0000771 15.1670000 2
20815 20824 20822 20823 1 180.0000771 15.1670000 2
20820 20824 20822 20823 4 180.0000771 4.6024000 2
20826 20827 20828 20829 1 180.0000771 15.1670000 2
20826 20827 20828 20830 1 180.0000771 15.1670000 2
20829 20827 20828 20830 4 180.0000771 4.6024000 2
20826 20827 20836 20828 4 180.0000771 4.6024000 2
20826 20827 20836 20834 1 180.0000771 15.1670000 2
20826 20827 20836 20837 1 180.0000771 15.1670000 2
20828 20827 20836 20834 1 180.0000771 15.1670000 2
20828 20827 20836 20837 1 180.0000771 15.1670000 2
20829 20828 20827 20836 1 180.0000771 15.1670000 2
20830 20828 20827 20836 1 180.0000771 15.1670000 2
20827 20828 20830 20831 1 180.0000771 15.1670000 2
20827 20828 20830 20832 1 180.0000771 15.1670000 2
20829 20828 20830 20831 1 180.0000771 15.1670000 2
20829 20828 20830 20832 1 180.0000771 15.1670000 2
20828 20830 20832 20833 1 180.0000771 15.1670000 2
20828 20830 20832 20834 1 180.0000771 15.1670000 2
20831 20830 20832 20833 1 180.0000771 15.1670000 2
20831 20830 20832 20834 1 180.0000771 15.1670000 2
20828 20832 20830 20831 4 180.0000771 4.6024000 2
20830 20832 20834 20835 1 180.0000771 15.1670000 2
20830 20832 20834 20836 1 180.0000771 15.1670000 2
20833 20832 20834 20835 1 180.0000771 15.1670000 2
20833 20832 20834 20836 1 180.0000771 15.1670000 2
20830 20834 20832 20833 4 180.0000771 4.6024000 2
20827 20834 20836 20837 4 180.0000771 4.6024000 2
20832 20834 20836 20837 1 180.0000771 15.1670000 2
20835 20834 20836 20837 1 180.0000771 15.1670000 2
20827 20836 20834 20832 1 180.0000771 15.1670000 2
20827 20836 20834 20835 1 180.0000771 15.1670000 2
20832 20836 20834 20835 4 180.0000771 4.6024000 2
20838 20839 20840 20841 1 180.0000771 15.1670000 2
20838 20839 20840 20842 1 180.0000771 15.1670000 2
20841 20839 20840 20842 4 180.0000771 4.6024000 2
20838 20839 20848 20840 4 180.0000771 4.6024000 2
20838 20839 20848 20846 1 180.0000771 15.1670000 2
20838 20839 20848 20849 1 180.0000771 15.1670000 2
20840 20839 20848 20846 1 180.0000771 15.1670000 2
20840 20839 20848 20849 1 180.0000771 15.1670000 2
20841 20840 20839 20848 1 180.0000771 15.1670000 2
20842 20840 20839 20848 1 180.0000771 15.1670000 2
20839 20840 20842 20843 1 180.0000771 15.1670000 2
20839 20840 20842 20844 1 180.0000771 15.1670000 2
20841 20840 20842 20843 1 180.0000771 15.1670000 2
20841 20840 20842 20844 1 180.0000771 15.1670000 2
20840 20842 20844 20845 1 180.0000771 15.1670000 2
20840 20842 20844 20846 1 180.0000771 15.1670000 2
20843 20842 20844 20845 1 180.0000771 15.1670000 2
20843 20842 20844 20846 1 180.0000771 15.1670000 2
20840 20844 20842 20843 4 180.0000771 4.6024000 2
20842 20844 20846 20847 1 180.0000771 15.1670000 2
20842 20844 20846 20848 1 180.0000771 15.1670000 2
20845 20844 20846 20847 1 180.0000771 15.1670000 2
20845 20844 20846 20848 1 180.0000771 15.1670000 2
20842 20846 20844 20845 4 180.0000771 4.6024000 2
20839 20846 20848 20849 4 180.0000771 4.6024000 2
20844 20846 20848 20849 1 180.0000771 15.1670000 2
20847 20846 20848 20849 1 180.0000771 15.1670000 2
20839 20848 20846 20844 1 180.0000771 15.1670000 2
20839 20848 20846 20847 1 180.0000771 15.1670000 2
20844 20848 20846 20847 4 180.0000771 4.6024000 2
20850 20851 20852 20853 1 180.0000771 15.1670000 2
20850 20851 20852 20854 1 180.0000771 15.1670000 2
20853 20851 20852 20854 4 180.0000771 4.6024000 2
20850 20851 20860 20852 4 180.0000771 4.6024000 2
20850 20851 20860 20858 1 180.0000771 15.1670000 2
20850 20851 20860 20861 1 180.0000771 15.1670000 2
20852 20851 20860 20858 1 180.0000771 15.1670000 2
20852 20851 20860 20861 1 180.0000771 15.1670000 2
20853 20852 20851 20860 1 180.0000771 15.1670000 2
20854 20852 20851 20860 1 180.0000771 15.1670000 2
20851 20852 20854 20855 1 180.0000771 15.1670000 2
20851 20852 20854 20856 1 180.0000771 15.1670000 2
20853 20852 20854 20855 1 180.0000771 15.1670000 2
20853 20852 20854 20856 1 180.0000771 15.1670000 2
20852 20854 20856 20857 1 180.0000771 15.1670000 2
20852 20854 20856 20858 1 180.0000771 15.1670000 2
20855 20854 20856 20857 1 180.0000771 15.1670000 2
20855 20854 20856 20858 1 180.0000771 15.1670000 2
20852 20856 20854 20855 4 180.0000771 4.6024000 2
20854 20856 20858 20859 1 180.0000771 15.1670000 2
20854 20856 20858 20860 1 180.0000771 15.1670000 2
20857 20856 20858 20859 1 180.0000771 15.1670000 2
20857 20856 20858 20860 1 180.0000771 15.1670000 2
20854 20858 20856 20857 4 180.0000771 4.6024000 2
20851 20858 20860 20861 4 180.0000771 4.6024000 2
20856 20858 20860 20861 1 180.0000771 15.1670000 2
20859 20858 20860 20861 1 180.0000771 15.1670000 2
20851 20860 20858 20856 1 180.0000771 15.1670000 2
20851 20860 20858 20859 1 180.0000771 15.1670000 2
20856 20860 20858 20859 4 180.0000771 4.6024000 2
20862 20863 20864 20865 1 180.0000771 15.1670000 2
20862 20863 20864 20866 1 180.0000771 15.1670000 2
20865 20863 20864 20866 4 180.0000771 4.6024000 2
20862 20863 20872 20864 4 180.0000771 4.6024000 2
20862 20863 20872 20870 1 180.0000771 15.1670000 2
20862 20863 20872 20873 1 180.0000771 15.1670000 2
20864 20863 20872 20870 1 180.0000771 15.1670000 2
20864 20863 20872 20873 1 180.0000771 15.1670000 2
20865 20864 20863 20872 1 180.0000771 15.1670000 2
20866 20864 20863 20872 1 180.0000771 15.1670000 2
20863 20864 20866 20867 1 180.0000771 15.1670000 2
20863 20864 20866 20868 1 180.0000771 15.1670000 2
20865 20864 20866 20867 1 180.0000771 15.1670000 2
20865 20864 20866 20868 1 180.0000771 15.1670000 2
20864 20866 20868 20869 1 180.0000771 15.1670000 2
20864 20866 20868 20870 1 180.0000771 15.1670000 2
20867 20866 20868 20869 1 180.0000771 15.1670000 2
20867 20866 20868 20870 1 180.0000771 15.1670000 2
20864 20868 20866 20867 4 180.0000771 4.6024000 2
20866 20868 20870 20871 1 180.0000771 15.1670000 2
20866 20868 20870 20872 1 180.0000771 15.1670000 2
20869 20868 20870 20871 1 180.0000771 15.1670000 2
20869 20868 20870 20872 1 180.0000771 15.1670000 2
20866 20870 20868 20869 4 180.0000771 4.6024000 2
20863 20870 20872 20873 4 180.0000771 4.6024000 2
20868 20870 20872 20873 1 180.0000771 15.1670000 2
20871 20870 20872 20873 1 180.0000771 15.1670000 2
20863 20872 20870 20868 1 180.0000771 15.1670000 2
20863 20872 20870 20871 1 180.0000771 15.1670000 2
20868 20872 20870 20871 4 180.0000771 4.6024000 2
20874 20875 20876 20877 1 180.0000771 15.1670000 2
20874 20875 20876 20878 1 180.0000771 15.1670000 2
20877 20875 20876 20878 4 180.0000771 4.6024000 2
20874 20875 20884 20876 4 180.0000771 4.6024000 2
20874 20875 20884 20882 1 180.0000771 15.1670000 2
20874 20875 20884 20885 1 180.0000771 15.1670000 2
20876 20875 20884 20882 1 180.0000771 15.1670000 2
20876 20875 20884 20885 1 180.0000771 15.1670000 2
20877 20876 20875 20884 1 180.0000771 15.1670000 2
20878 20876 20875 20884 1 180.0000771 15.1670000 2
20875 20876 20878 20879 1 180.0000771 15.1670000 2
20875 20876 20878 20880 1 180.0000771 15.1670000 2
20877 20876 20878 20879 1 180.0000771 15.1670000 2
20877 20876 20878 20880 1 180.0000771 15.1670000 2
20876 20878 20880 20881 1 180.0000771 15.1670000 2
20876 20878 20880 20882 1 180.0000771 15.1670000 2
20879 20878 20880 20881 1 180.0000771 15.1670000 2
20879 20878 20880 20882 1 180.0000771 15.1670000 2
20876 20880 20878 20879 4 180.0000771 4.6024000 2
20878 20880 20882 20883 1 180.0000771 15.1670000 2
20878 20880 20882 20884 1 180.0000771 15.1670000 2
20881 20880 20882 20883 1 180.0000771 15.1670000 2
20881 20880 20882 20884 1 180.0000771 15.1670000 2
20878 20882 20880 20881 4 180.0000771 4.6024000 2
20875 20882 20884 20885 4 180.0000771 4.6024000 2
20880 20882 20884 20885 1 180.0000771 15.1670000 2
20883 20882 20884 20885 1 180.0000771 15.1670000 2
20875 20884 20882 20880 1 180.0000771 15.1670000 2
20875 20884 20882 20883 1 180.0000771 15.1670000 2
20880 20884 20882 20883 4 180.0000771 4.6024000 2
20886 20887 20888 20889 1 180.0000771 15.1670000 2
20886 20887 20888 20890 1 180.0000771 15.1670000 2
20889 20887 20888 20890 4 180.0000771 4.6024000 2
20886 20887 20896 20888 4 180.0000771 4.6024000 2
20886 20887 20896 20894 1 180.0000771 15.1670000 2
20886 20887 20896 20897 1 180.0000771 15.1670000 2
20888 20887 20896 20894 1 180.0000771 15.1670000 2
20888 20887 20896 20897 1 180.0000771 15.1670000 2
20889 20888 20887 20896 1 180.0000771 15.1670000 2
20890 20888 20887 20896 1 180.0000771 15.1670000 2
20887 20888 20890 20891 1 180.0000771 15.1670000 2
20887 20888 20890 20892 1 180.0000771 15.1670000 2
20889 20888 20890 20891 1 180.0000771 15.1670000 2
20889 20888 20890 20892 1 180.0000771 15.1670000 2
20888 20890 20892 20893 1 180.0000771 15.1670000 2
20888 20890 20892 20894 1 180.0000771 15.1670000 2
20891 20890 20892 20893 1 180.0000771 15.1670000 2
20891 20890 20892 20894 1 180.0000771 15.1670000 2
20888 20892 20890 20891 4 180.0000771 4.6024000 2
20890 20892 20894 20895 1 180.0000771 15.1670000 2
20890 20892 20894 20896 1 180.0000771 15.1670000 2
20893 20892 20894 20895 1 180.0000771 15.1670000 2
20893 20892 20894 20896 1 180.0000771 15.1670000 2
20890 20894 20892 20893 4 180.0000771 4.6024000 2
20887 20894 20896 20897 4 180.0000771 4.6024000 2
20892 20894 20896 20897 1 180.0000771 15.1670000 2
20895 20894 20896 20897 1 180.0000771 15.1670000 2
20887 20896 20894 20892 1 180.0000771 15.1670000 2
20887 20896 20894 20895 1 180.0000771 15.1670000 2
20892 20896 20894 20895 4 180.0000771 4.6024000 2
20898 20899 20900 20901 1 180.0000771 15.1670000 2
20898 20899 20900 20902 1 180.0000771 15.1670000 2
20901 20899 20900 20902 4 180.0000771 4.6024000 2
20898 20899 20908 20900 4 180.0000771 4.6024000 2
20898 20899 20908 20906 1 180.0000771 15.1670000 2
20898 20899 20908 20909 1 180.0000771 15.1670000 2
20900 20899 20908 20906 1 180.0000771 15.1670000 2
20900 20899 20908 20909 1 180.0000771 15.1670000 2
20901 20900 20899 20908 1 180.0000771 15.1670000 2
20902 20900 20899 20908 1 180.0000771 15.1670000 2
20899 20900 20902 20903 1 180.0000771 15.1670000 2
20899 20900 20902 20904 1 180.0000771 15.1670000 2
20901 20900 20902 20903 1 180.0000771 15.1670000 2
20901 20900 20902 20904 1 180.0000771 15.1670000 2
20900 20902 20904 20905 1 180.0000771 15.1670000 2
20900 20902 20904 20906 1 180.0000771 15.1670000 2
20903 20902 20904 20905 1 180.0000771 15.1670000 2
20903 20902 20904 20906 1 180.0000771 15.1670000 2
20900 20904 20902 20903 4 180.0000771 4.6024000 2
20902 20904 20906 20907 1 180.0000771 15.1670000 2
20902 20904 20906 20908 1 180.0000771 15.1670000 2
20905 20904 20906 20907 1 180.0000771 15.1670000 2
20905 20904 20906 20908 1 180.0000771 15.1670000 2
20902 20906 20904 20905 4 180.0000771 4.6024000 2
20899 20906 20908 20909 4 180.0000771 4.6024000 2
20904 20906 20908 20909 1 180.0000771 15.1670000 2
20907 20906 20908 20909 1 180.0000771 15.1670000 2
20899 20908 20906 20904 1 180.0000771 15.1670000 2
20899 20908 20906 20907 1 180.0000771 15.1670000 2
20904 20908 20906 20907 4 180.0000771 4.6024000 2
20910 20911 20912 20913 1 180.0000771 15.1670000 2
20910 20911 20912 20914 1 180.0000771 15.1670000 2
20913 20911 20912 20914 4 180.0000771 4.6024000 2
20910 20911 20920 20912 4 180.0000771 4.6024000 2
20910 20911 20920 20918 1 180.0000771 15.1670000 2
20910 20911 20920 20921 1 180.0000771 15.1670000 2
20912 20911 20920 20918 1 180.0000771 15.1670000 2
20912 20911 20920 20921 1 180.0000771 15.1670000 2
20913 20912 20911 20920 1 180.0000771 15.1670000 2
20914 20912 20911 20920 1 180.0000771 15.1670000 2
20911 20912 20914 20915 1 180.0000771 15.1670000 2
20911 20912 20914 20916 1 180.0000771 15.1670000 2
20913 20912 20914 20915 1 180.0000771 15.1670000 2
20913 20912 20914 20916 1 180.0000771 15.1670000 2
20912 20914 20916 20917 1 180.0000771 15.1670000 2
20912 20914 20916 20918 1 180.0000771 15.1670000 2
20915 20914 20916 20917 1 180.0000771 15.1670000 2
20915 20914 20916 20918 1 180.0000771 15.1670000 2
20912 20916 20914 20915 4 180.0000771 4.6024000 2
20914 20916 20918 20919 1 180.0000771 15.1670000 2
20914 20916 20918 20920 1 180.0000771 15.1670000 2
20917 20916 20918 20919 1 180.0000771 15.1670000 2
20917 20916 20918 20920 1 180.0000771 15.1670000 2
20914 20918 20916 20917 4 180.0000771 4.6024000 2
20911 20918 20920 20921 4 180.0000771 4.6024000 2
20916 20918 20920 20921 1 180.0000771 15.1670000 2
20919 20918 20920 20921 1 180.0000771 15.1670000 2
20911 20920 20918 20916 1 180.0000771 15.1670000 2
20911 20920 20918 20919 1 180.0000771 15.1670000 2
20916 20920 20918 20919 4 180.0000771 4.6024000 2
20922 20923 20924 20925 1 180.0000771 15.1670000 2
20922 20923 20924 20926 1 180.0000771 15.1670000 2
20925 20923 20924 20926 4 180.0000771 4.6024000 2
20922 20923 20932 20924 4 180.0000771 4.6024000 2
20922 20923 20932 20930 1 180.0000771 15.1670000 2
20922 20923 20932 20933 1 180.0000771 15.1670000 2
20924 20923 20932 20930 1 180.0000771 15.1670000 2
20924 20923 20932 20933 1 180.0000771 15.1670000 2
20925 20924 20923 20932 1 180.0000771 15.1670000 2
20926 20924 20923 20932 1 180.0000771 15.1670000 2
20923 20924 20926 20927 1 180.0000771 15.1670000 2
20923 20924 20926 20928 1 180.0000771 15.1670000 2
20925 20924 20926 20927 1 180.0000771 15.1670000 2
20925 20924 20926 20928 1 180.0000771 15.1670000 2
20924 20926 20928 20929 1 180.0000771 15.1670000 2
20924 20926 20928 20930 1 180.0000771 15.1670000 2
20927 20926 20928 20929 1 180.0000771 15.1670000 2
20927 20926 20928 20930 1 180.0000771 15.1670000 2
20924 20928 20926 20927 4 180.0000771 4.6024000 2
20926 20928 20930 20931 1 180.0000771 15.1670000 2
20926 20928 20930 20932 1 180.0000771 15.1670000 2
20929 20928 20930 20931 1 180.0000771 15.1670000 2
20929 20928 20930 20932 1 180.0000771 15.1670000 2
20926 20930 20928 20929 4 180.0000771 4.6024000 2
20923 20930 20932 20933 4 180.0000771 4.6024000 2
20928 20930 20932 20933 1 180.0000771 15.1670000 2
20931 20930 20932 20933 1 180.0000771 15.1670000 2
20923 20932 20930 20928 1 180.0000771 15.1670000 2
20923 20932 20930 20931 1 180.0000771 15.1670000 2
20928 20932 20930 20931 4 180.0000771 4.6024000 2
20934 20935 20936 20937 1 180.0000771 15.1670000 2
20934 20935 20936 20938 1 180.0000771 15.1670000 2
20937 20935 20936 20938 4 180.0000771 4.6024000 2
20934 20935 20944 20936 4 180.0000771 4.6024000 2
20934 20935 20944 20942 1 180.0000771 15.1670000 2
20934 20935 20944 20945 1 180.0000771 15.1670000 2
20936 20935 20944 20942 1 180.0000771 15.1670000 2
20936 20935 20944 20945 1 180.0000771 15.1670000 2
20937 20936 20935 20944 1 180.0000771 15.1670000 2
20938 20936 20935 20944 1 180.0000771 15.1670000 2
20935 20936 20938 20939 1 180.0000771 15.1670000 2
20935 20936 20938 20940 1 180.0000771 15.1670000 2
20937 20936 20938 20939 1 180.0000771 15.1670000 2
20937 20936 20938 20940 1 180.0000771 15.1670000 2
20936 20938 20940 20941 1 180.0000771 15.1670000 2
20936 20938 20940 20942 1 180.0000771 15.1670000 2
20939 20938 20940 20941 1 180.0000771 15.1670000 2
20939 20938 20940 20942 1 180.0000771 15.1670000 2
20936 20940 20938 20939 4 180.0000771 4.6024000 2
20938 20940 20942 20943 1 180.0000771 15.1670000 2
20938 20940 20942 20944 1 180.0000771 15.1670000 2
20941 20940 20942 20943 1 180.0000771 15.1670000 2
20941 20940 20942 20944 1 180.0000771 15.1670000 2
20938 20942 20940 20941 4 180.0000771 4.6024000 2
20935 20942 20944 20945 4 180.0000771 4.6024000 2
20940 20942 20944 20945 1 180.0000771 15.1670000 2
20943 20942 20944 20945 1 180.0000771 15.1670000 2
20935 20944 20942 20940 1 180.0000771 15.1670000 2
20935 20944 20942 20943 1 180.0000771 15.1670000 2
20940 20944 20942 20943 4 180.0000771 4.6024000 2
20946 20947 20948 20949 1 180.0000771 15.1670000 2
20946 20947 20948 20950 1 180.0000771 15.1670000 2
20949 20947 20948 20950 4 180.0000771 4.6024000 2
20946 20947 20956 20948 4 180.0000771 4.6024000 2
20946 20947 20956 20954 1 180.0000771 15.1670000 2
20946 20947 20956 20957 1 180.0000771 15.1670000 2
20948 20947 20956 20954 1 180.0000771 15.1670000 2
20948 20947 20956 20957 1 180.0000771 15.1670000 2
20949 20948 20947 20956 1 180.0000771 15.1670000 2
20950 20948 20947 20956 1 180.0000771 15.1670000 2
20947 20948 20950 20951 1 180.0000771 15.1670000 2
20947 20948 20950 20952 1 180.0000771 15.1670000 2
20949 20948 20950 20951 1 180.0000771 15.1670000 2
20949 20948 20950 20952 1 180.0000771 15.1670000 2
20948 20950 20952 20953 1 180.0000771 15.1670000 2
20948 20950 20952 20954 1 180.0000771 15.1670000 2
20951 20950 20952 20953 1 180.0000771 15.1670000 2
20951 20950 20952 20954 1 180.0000771 15.1670000 2
20948 20952 20950 20951 4 180.0000771 4.6024000 2
20950 20952 20954 20955 1 180.0000771 15.1670000 2
20950 20952 20954 20956 1 180.0000771 15.1670000 2
20953 20952 20954 20955 1 180.0000771 15.1670000 2
20953 20952 20954 20956 1 180.0000771 15.1670000 2
20950 20954 20952 20953 4 180.0000771 4.6024000 2
20947 20954 20956 20957 4 180.0000771 4.6024000 2
20952 20954 20956 20957 1 180.0000771 15.1670000 2
20955 20954 20956 20957 1 180.0000771 15.1670000 2
20947 20956 20954 20952 1 180.0000771 15.1670000 2
20947 20956 20954 20955 1 180.0000771 15.1670000 2
20952 20956 20954 20955 4 180.0000771 4.6024000 2
20958 20959 20960 20961 1 180.0000771 15.1670000 2
20958 20959 20960 20962 1 180.0000771 15.1670000 2
20961 20959 20960 20962 4 180.0000771 4.6024000 2
20958 20959 20968 20960 4 180.0000771 4.6024000 2
20958 20959 20968 20966 1 180.0000771 15.1670000 2
20958 20959 20968 20969 1 180.0000771 15.1670000 2
20960 20959 20968 20966 1 180.0000771 15.1670000 2
20960 20959 20968 20969 1 180.0000771 15.1670000 2
20961 20960 20959 20968 1 180.0000771 15.1670000 2
20962 20960 20959 20968 1 180.0000771 15.1670000 2
20959 20960 20962 20963 1 180.0000771 15.1670000 2
20959 20960 20962 20964 1 180.0000771 15.1670000 2
20961 20960 20962 20963 1 180.0000771 15.1670000 2
20961 20960 20962 20964 1 180.0000771 15.1670000 2
20960 20962 20964 20965 1 180.0000771 15.1670000 2
20960 20962 20964 20966 1 180.0000771 15.1670000 2
20963 20962 20964 20965 1 180.0000771 15.1670000 2
20963 20962 20964 20966 1 180.0000771 15.1670000 2
20960 20964 20962 20963 4 180.0000771 4.6024000 2
20962 20964 20966 20967 1 180.0000771 15.1670000 2
20962 20964 20966 20968 1 180.0000771 15.1670000 2
20965 20964 20966 20967 1 180.0000771 15.1670000 2
20965 20964 20966 20968 1 180.0000771 15.1670000 2
20962 20966 20964 20965 4 180.0000771 4.6024000 2
20959 20966 20968 20969 4 180.0000771 4.6024000 2
20964 20966 20968 20969 1 180.0000771 15.1670000 2
20967 20966 20968 20969 1 180.0000771 15.1670000 2
20959 20968 20966 20964 1 180.0000771 15.1670000 2
20959 20968 20966 20967 1 180.0000771 15.1670000 2
20964 20968 20966 20967 4 180.0000771 4.6024000 2
20970 20971 20972 20973 1 180.0000771 15.1670000 2
20970 20971 20972 20974 1 180.0000771 15.1670000 2
20973 20971 20972 20974 4 180.0000771 4.6024000 2
20970 20971 20980 20972 4 180.0000771 4.6024000 2
20970 20971 20980 20978 1 180.0000771 15.1670000 2
20970 20971 20980 20981 1 180.0000771 15.1670000 2
20972 20971 20980 20978 1 180.0000771 15.1670000 2
20972 20971 20980 20981 1 180.0000771 15.1670000 2
20973 20972 20971 20980 1 180.0000771 15.1670000 2
20974 20972 20971 20980 1 180.0000771 15.1670000 2
20971 20972 20974 20975 1 180.0000771 15.1670000 2
20971 20972 20974 20976 1 180.0000771 15.1670000 2
20973 20972 20974 20975 1 180.0000771 15.1670000 2
20973 20972 20974 20976 1 180.0000771 15.1670000 2
20972 20974 20976 20977 1 180.0000771 15.1670000 2
20972 20974 20976 20978 1 180.0000771 15.1670000 2
20975 20974 20976 20977 1 180.0000771 15.1670000 2
20975 20974 20976 20978 1 180.0000771 15.1670000 2
20972 20976 20974 20975 4 180.0000771 4.6024000 2
20974 20976 20978 20979 1 180.0000771 15.1670000 2
20974 20976 20978 20980 1 180.0000771 15.1670000 2
20977 20976 20978 20979 1 180.0000771 15.1670000 2
20977 20976 20978 20980 1 180.0000771 15.1670000 2
20974 20978 20976 20977 4 180.0000771 4.6024000 2
20971 20978 20980 20981 4 180.0000771 4.6024000 2
20976 20978 20980 20981 1 180.0000771 15.1670000 2
20979 20978 20980 20981 1 180.0000771 15.1670000 2
20971 20980 20978 20976 1 180.0000771 15.1670000 2
20971 20980 20978 20979 1 180.0000771 15.1670000 2
20976 20980 20978 20979 4 180.0000771 4.6024000 2
20982 20983 20984 20985 1 180.0000771 15.1670000 2
20982 20983 20984 20986 1 180.0000771 15.1670000 2
20985 20983 20984 20986 4 180.0000771 4.6024000 2
20982 20983 20992 20984 4 180.0000771 4.6024000 2
20982 20983 20992 20990 1 180.0000771 15.1670000 2
20982 20983 20992 20993 1 180.0000771 15.1670000 2
20984 20983 20992 20990 1 180.0000771 15.1670000 2
20984 20983 20992 20993 1 180.0000771 15.1670000 2
20985 20984 20983 20992 1 180.0000771 15.1670000 2
20986 20984 20983 20992 1 180.0000771 15.1670000 2
20983 20984 20986 20987 1 180.0000771 15.1670000 2
20983 20984 20986 20988 1 180.0000771 15.1670000 2
20985 20984 20986 20987 1 180.0000771 15.1670000 2
20985 20984 20986 20988 1 180.0000771 15.1670000 2
20984 20986 20988 20989 1 180.0000771 15.1670000 2
20984 20986 20988 20990 1 180.0000771 15.1670000 2
20987 20986 20988 20989 1 180.0000771 15.1670000 2
20987 20986 20988 20990 1 180.0000771 15.1670000 2
20984 20988 20986 20987 4 180.0000771 4.6024000 2
20986 20988 20990 20991 1 180.0000771 15.1670000 2
20986 20988 20990 20992 1 180.0000771 15.1670000 2
20989 20988 20990 20991 1 180.0000771 15.1670000 2
20989 20988 20990 20992 1 180.0000771 15.1670000 2
20986 20990 20988 20989 4 180.0000771 4.6024000 2
20983 20990 20992 20993 4 180.0000771 4.6024000 2
20988 20990 20992 20993 1 180.0000771 15.1670000 2
20991 20990 20992 20993 1 180.0000771 15.1670000 2
20983 20992 20990 20988 1 180.0000771 15.1670000 2
20983 20992 20990 20991 1 180.0000771 15.1670000 2
20988 20992 20990 20991 4 180.0000771 4.6024000 2
20994 20995 20996 20997 1 180.0000771 15.1670000 2
20994 20995 20996 20998 1 180.0000771 15.1670000 2
20997 20995 20996 20998 4 180.0000771 4.6024000 2
20994 20995 21004 20996 4 180.0000771 4.6024000 2
20994 20995 21004 21002 1 180.0000771 15.1670000 2
20994 20995 21004 21005 1 180.0000771 15.1670000 2
20996 20995 21004 21002 1 180.0000771 15.1670000 2
20996 20995 21004 21005 1 180.0000771 15.1670000 2
20997 20996 20995 21004 1 180.0000771 15.1670000 2
20998 20996 20995 21004 1 180.0000771 15.1670000 2
20995 20996 20998 20999 1 180.0000771 15.1670000 2
20995 20996 20998 21000 1 180.0000771 15.1670000 2
20997 20996 20998 20999 1 180.0000771 15.1670000 2
20997 20996 20998 21000 1 180.0000771 15.1670000 2
20996 20998 21000 21001 1 180.0000771 15.1670000 2
20996 20998 21000 21002 1 180.0000771 15.1670000 2
20999 20998 21000 21001 1 180.0000771 15.1670000 2
20999 20998 21000 21002 1 180.0000771 15.1670000 2
20996 21000 20998 20999 4 180.0000771 4.6024000 2
20998 21000 21002 21003 1 180.0000771 15.1670000 2
20998 21000 21002 21004 1 180.0000771 15.1670000 2
21001 21000 21002 21003 1 180.0000771 15.1670000 2
21001 21000 21002 21004 1 180.0000771 15.1670000 2
20998 21002 21000 21001 4 180.0000771 4.6024000 2
20995 21002 21004 21005 4 180.0000771 4.6024000 2
21000 21002 21004 21005 1 180.0000771 15.1670000 2
21003 21002 21004 21005 1 180.0000771 15.1670000 2
20995 21004 21002 21000 1 180.0000771 15.1670000 2
20995 21004 21002 21003 1 180.0000771 15.1670000 2
21000 21004 21002 21003 4 180.0000771 4.6024000 2
21006 21007 21008 21009 1 180.0000771 15.1670000 2
21006 21007 21008 21010 1 180.0000771 15.1670000 2
21009 21007 21008 21010 4 180.0000771 4.6024000 2
21006 21007 21016 21008 4 180.0000771 4.6024000 2
21006 21007 21016 21014 1 180.0000771 15.1670000 2
21006 21007 21016 21017 1 180.0000771 15.1670000 2
21008 21007 21016 21014 1 180.0000771 15.1670000 2
21008 21007 21016 21017 1 180.0000771 15.1670000 2
21009 21008 21007 21016 1 180.0000771 15.1670000 2
21010 21008 21007 21016 1 180.0000771 15.1670000 2
21007 21008 21010 21011 1 180.0000771 15.1670000 2
21007 21008 21010 21012 1 180.0000771 15.1670000 2
21009 21008 21010 21011 1 180.0000771 15.1670000 2
21009 21008 21010 21012 1 180.0000771 15.1670000 2
21008 21010 21012 21013 1 180.0000771 15.1670000 2
21008 21010 21012 21014 1 180.0000771 15.1670000 2
21011 21010 21012 21013 1 180.0000771 15.1670000 2
21011 21010 21012 21014 1 180.0000771 15.1670000 2
21008 21012 21010 21011 4 180.0000771 4.6024000 2
21010 21012 21014 21015 1 180.0000771 15.1670000 2
21010 21012 21014 21016 1 180.0000771 15.1670000 2
21013 21012 21014 21015 1 180.0000771 15.1670000 2
21013 21012 21014 21016 1 180.0000771 15.1670000 2
21010 21014 21012 21013 4 180.0000771 4.6024000 2
21007 21014 21016 21017 4 180.0000771 4.6024000 2
21012 21014 21016 21017 1 180.0000771 15.1670000 2
21015 21014 21016 21017 1 180.0000771 15.1670000 2
21007 21016 21014 21012 1 180.0000771 15.1670000 2
21007 21016 21014 21015 1 180.0000771 15.1670000 2
21012 21016 21014 21015 4 180.0000771 4.6024000 2
21018 21019 21020 21021 1 180.0000771 15.1670000 2
21018 21019 21020 21022 1 180.0000771 15.1670000 2
21021 21019 21020 21022 4 180.0000771 4.6024000 2
21018 21019 21028 21020 4 180.0000771 4.6024000 2
21018 21019 21028 21026 1 180.0000771 15.1670000 2
21018 21019 21028 21029 1 180.0000771 15.1670000 2
21020 21019 21028 21026 1 180.0000771 15.1670000 2
21020 21019 21028 21029 1 180.0000771 15.1670000 2
21021 21020 21019 21028 1 180.0000771 15.1670000 2
21022 21020 21019 21028 1 180.0000771 15.1670000 2
21019 21020 21022 21023 1 180.0000771 15.1670000 2
21019 21020 21022 21024 1 180.0000771 15.1670000 2
21021 21020 21022 21023 1 180.0000771 15.1670000 2
21021 21020 21022 21024 1 180.0000771 15.1670000 2
21020 21022 21024 21025 1 180.0000771 15.1670000 2
21020 21022 21024 21026 1 180.0000771 15.1670000 2
21023 21022 21024 21025 1 180.0000771 15.1670000 2
21023 21022 21024 21026 1 180.0000771 15.1670000 2
21020 21024 21022 21023 4 180.0000771 4.6024000 2
21022 21024 21026 21027 1 180.0000771 15.1670000 2
21022 21024 21026 21028 1 180.0000771 15.1670000 2
21025 21024 21026 21027 1 180.0000771 15.1670000 2
21025 21024 21026 21028 1 180.0000771 15.1670000 2
21022 21026 21024 21025 4 180.0000771 4.6024000 2
21019 21026 21028 21029 4 180.0000771 4.6024000 2
21024 21026 21028 21029 1 180.0000771 15.1670000 2
21027 21026 21028 21029 1 180.0000771 15.1670000 2
21019 21028 21026 21024 1 180.0000771 15.1670000 2
21019 21028 21026 21027 1 180.0000771 15.1670000 2
21024 21028 21026 21027 4 180.0000771 4.6024000 2
21030 21031 21032 21033 1 180.0000771 15.1670000 2
21030 21031 21032 21034 1 180.0000771 15.1670000 2
21033 21031 21032 21034 4 180.0000771 4.6024000 2
21030 21031 21040 21032 4 180.0000771 4.6024000 2
21030 21031 21040 21038 1 180.0000771 15.1670000 2
21030 21031 21040 21041 1 180.0000771 15.1670000 2
21032 21031 21040 21038 1 180.0000771 15.1670000 2
21032 21031 21040 21041 1 180.0000771 15.1670000 2
21033 21032 21031 21040 1 180.0000771 15.1670000 2
21034 21032 21031 21040 1 180.0000771 15.1670000 2
21031 21032 21034 21035 1 180.0000771 15.1670000 2
21031 21032 21034 21036 1 180.0000771 15.1670000 2
21033 21032 21034 21035 1 180.0000771 15.1670000 2
21033 21032 21034 21036 1 180.0000771 15.1670000 2
21032 21034 21036 21037 1 180.0000771 15.1670000 2
21032 21034 21036 21038 1 180.0000771 15.1670000 2
21035 21034 21036 21037 1 180.0000771 15.1670000 2
21035 21034 21036 21038 1 180.0000771 15.1670000 2
21032 21036 21034 21035 4 180.0000771 4.6024000 2
21034 21036 21038 21039 1 180.0000771 15.1670000 2
21034 21036 21038 21040 1 180.0000771 15.1670000 2
21037 21036 21038 21039 1 180.0000771 15.1670000 2
21037 21036 21038 21040 1 180.0000771 15.1670000 2
21034 21038 21036 21037 4 180.0000771 4.6024000 2
21031 21038 21040 21041 4 180.0000771 4.6024000 2
21036 21038 21040 21041 1 180.0000771 15.1670000 2
21039 21038 21040 21041 1 180.0000771 15.1670000 2
21031 21040 21038 21036 1 180.0000771 15.1670000 2
21031 21040 21038 21039 1 180.0000771 15.1670000 2
21036 21040 21038 21039 4 180.0000771 4.6024000 2
21042 21043 21044 21045 1 180.0000771 15.1670000 2
21042 21043 21044 21046 1 180.0000771 15.1670000 2
21045 21043 21044 21046 4 180.0000771 4.6024000 2
21042 21043 21052 21044 4 180.0000771 4.6024000 2
21042 21043 21052 21050 1 180.0000771 15.1670000 2
21042 21043 21052 21053 1 180.0000771 15.1670000 2
21044 21043 21052 21050 1 180.0000771 15.1670000 2
21044 21043 21052 21053 1 180.0000771 15.1670000 2
21045 21044 21043 21052 1 180.0000771 15.1670000 2
21046 21044 21043 21052 1 180.0000771 15.1670000 2
21043 21044 21046 21047 1 180.0000771 15.1670000 2
21043 21044 21046 21048 1 180.0000771 15.1670000 2
21045 21044 21046 21047 1 180.0000771 15.1670000 2
21045 21044 21046 21048 1 180.0000771 15.1670000 2
21044 21046 21048 21049 1 180.0000771 15.1670000 2
21044 21046 21048 21050 1 180.0000771 15.1670000 2
21047 21046 21048 21049 1 180.0000771 15.1670000 2
21047 21046 21048 21050 1 180.0000771 15.1670000 2
21044 21048 21046 21047 4 180.0000771 4.6024000 2
21046 21048 21050 21051 1 180.0000771 15.1670000 2
21046 21048 21050 21052 1 180.0000771 15.1670000 2
21049 21048 21050 21051 1 180.0000771 15.1670000 2
21049 21048 21050 21052 1 180.0000771 15.1670000 2
21046 21050 21048 21049 4 180.0000771 4.6024000 2
21043 21050 21052 21053 4 180.0000771 4.6024000 2
21048 21050 21052 21053 1 180.0000771 15.1670000 2
21051 21050 21052 21053 1 180.0000771 15.1670000 2
21043 21052 21050 21048 1 180.0000771 15.1670000 2
21043 21052 21050 21051 1 180.0000771 15.1670000 2
21048 21052 21050 21051 4 180.0000771 4.6024000 2
21054 21055 21056 21057 1 180.0000771 15.1670000 2
21054 21055 21056 21058 1 180.0000771 15.1670000 2
21057 21055 21056 21058 4 180.0000771 4.6024000 2
21054 21055 21064 21056 4 180.0000771 4.6024000 2
21054 21055 21064 21062 1 180.0000771 15.1670000 2
21054 21055 21064 21065 1 180.0000771 15.1670000 2
21056 21055 21064 21062 1 180.0000771 15.1670000 2
21056 21055 21064 21065 1 180.0000771 15.1670000 2
21057 21056 21055 21064 1 180.0000771 15.1670000 2
21058 21056 21055 21064 1 180.0000771 15.1670000 2
21055 21056 21058 21059 1 180.0000771 15.1670000 2
21055 21056 21058 21060 1 180.0000771 15.1670000 2
21057 21056 21058 21059 1 180.0000771 15.1670000 2
21057 21056 21058 21060 1 180.0000771 15.1670000 2
21056 21058 21060 21061 1 180.0000771 15.1670000 2
21056 21058 21060 21062 1 180.0000771 15.1670000 2
21059 21058 21060 21061 1 180.0000771 15.1670000 2
21059 21058 21060 21062 1 180.0000771 15.1670000 2
21056 21060 21058 21059 4 180.0000771 4.6024000 2
21058 21060 21062 21063 1 180.0000771 15.1670000 2
21058 21060 21062 21064 1 180.0000771 15.1670000 2
21061 21060 21062 21063 1 180.0000771 15.1670000 2
21061 21060 21062 21064 1 180.0000771 15.1670000 2
21058 21062 21060 21061 4 180.0000771 4.6024000 2
21055 21062 21064 21065 4 180.0000771 4.6024000 2
21060 21062 21064 21065 1 180.0000771 15.1670000 2
21063 21062 21064 21065 1 180.0000771 15.1670000 2
21055 21064 21062 21060 1 180.0000771 15.1670000 2
21055 21064 21062 21063 1 180.0000771 15.1670000 2
21060 21064 21062 21063 4 180.0000771 4.6024000 2
21066 21067 21068 21069 1 180.0000771 15.1670000 2
21066 21067 21068 21070 1 180.0000771 15.1670000 2
21069 21067 21068 21070 4 180.0000771 4.6024000 2
21066 21067 21076 21068 4 180.0000771 4.6024000 2
21066 21067 21076 21074 1 180.0000771 15.1670000 2
21066 21067 21076 21077 1 180.0000771 15.1670000 2
21068 21067 21076 21074 1 180.0000771 15.1670000 2
21068 21067 21076 21077 1 180.0000771 15.1670000 2
21069 21068 21067 21076 1 180.0000771 15.1670000 2
21070 21068 21067 21076 1 180.0000771 15.1670000 2
21067 21068 21070 21071 1 180.0000771 15.1670000 2
21067 21068 21070 21072 1 180.0000771 15.1670000 2
21069 21068 21070 21071 1 180.0000771 15.1670000 2
21069 21068 21070 21072 1 180.0000771 15.1670000 2
21068 21070 21072 21073 1 180.0000771 15.1670000 2
21068 21070 21072 21074 1 180.0000771 15.1670000 2
21071 21070 21072 21073 1 180.0000771 15.1670000 2
21071 21070 21072 21074 1 180.0000771 15.1670000 2
21068 21072 21070 21071 4 180.0000771 4.6024000 2
21070 21072 21074 21075 1 180.0000771 15.1670000 2
21070 21072 21074 21076 1 180.0000771 15.1670000 2
21073 21072 21074 21075 1 180.0000771 15.1670000 2
21073 21072 21074 21076 1 180.0000771 15.1670000 2
21070 21074 21072 21073 4 180.0000771 4.6024000 2
21067 21074 21076 21077 4 180.0000771 4.6024000 2
21072 21074 21076 21077 1 180.0000771 15.1670000 2
21075 21074 21076 21077 1 180.0000771 15.1670000 2
21067 21076 21074 21072 1 180.0000771 15.1670000 2
21067 21076 21074 21075 1 180.0000771 15.1670000 2
21072 21076 21074 21075 4 180.0000771 4.6024000 2
21078 21079 21080 21081 1 180.0000771 15.1670000 2
21078 21079 21080 21082 1 180.0000771 15.1670000 2
21081 21079 21080 21082 4 180.0000771 4.6024000 2
21078 21079 21088 21080 4 180.0000771 4.6024000 2
21078 21079 21088 21086 1 180.0000771 15.1670000 2
21078 21079 21088 21089 1 180.0000771 15.1670000 2
21080 21079 21088 21086 1 180.0000771 15.1670000 2
21080 21079 21088 21089 1 180.0000771 15.1670000 2
21081 21080 21079 21088 1 180.0000771 15.1670000 2
21082 21080 21079 21088 1 180.0000771 15.1670000 2
21079 21080 21082 21083 1 180.0000771 15.1670000 2
21079 21080 21082 21084 1 180.0000771 15.1670000 2
21081 21080 21082 21083 1 180.0000771 15.1670000 2
21081 21080 21082 21084 1 180.0000771 15.1670000 2
21080 21082 21084 21085 1 180.0000771 15.1670000 2
21080 21082 21084 21086 1 180.0000771 15.1670000 2
21083 21082 21084 21085 1 180.0000771 15.1670000 2
21083 21082 21084 21086 1 180.0000771 15.1670000 2
21080 21084 21082 21083 4 180.0000771 4.6024000 2
21082 21084 21086 21087 1 180.0000771 15.1670000 2
21082 21084 21086 21088 1 180.0000771 15.1670000 2
21085 21084 21086 21087 1 180.0000771 15.1670000 2
21085 21084 21086 21088 1 180.0000771 15.1670000 2
21082 21086 21084 21085 4 180.0000771 4.6024000 2
21079 21086 21088 21089 4 180.0000771 4.6024000 2
21084 21086 21088 21089 1 180.0000771 15.1670000 2
21087 21086 21088 21089 1 180.0000771 15.1670000 2
21079 21088 21086 21084 1 180.0000771 15.1670000 2
21079 21088 21086 21087 1 180.0000771 15.1670000 2
21084 21088 21086 21087 4 180.0000771 4.6024000 2
21090 21091 21092 21093 1 180.0000771 15.1670000 2
21090 21091 21092 21094 1 180.0000771 15.1670000 2
21093 21091 21092 21094 4 180.0000771 4.6024000 2
21090 21091 21100 21092 4 180.0000771 4.6024000 2
21090 21091 21100 21098 1 180.0000771 15.1670000 2
21090 21091 21100 21101 1 180.0000771 15.1670000 2
21092 21091 21100 21098 1 180.0000771 15.1670000 2
21092 21091 21100 21101 1 180.0000771 15.1670000 2
21093 21092 21091 21100 1 180.0000771 15.1670000 2
21094 21092 21091 21100 1 180.0000771 15.1670000 2
21091 21092 21094 21095 1 180.0000771 15.1670000 2
21091 21092 21094 21096 1 180.0000771 15.1670000 2
21093 21092 21094 21095 1 180.0000771 15.1670000 2
21093 21092 21094 21096 1 180.0000771 15.1670000 2
21092 21094 21096 21097 1 180.0000771 15.1670000 2
21092 21094 21096 21098 1 180.0000771 15.1670000 2
21095 21094 21096 21097 1 180.0000771 15.1670000 2
21095 21094 21096 21098 1 180.0000771 15.1670000 2
21092 21096 21094 21095 4 180.0000771 4.6024000 2
21094 21096 21098 21099 1 180.0000771 15.1670000 2
21094 21096 21098 21100 1 180.0000771 15.1670000 2
21097 21096 21098 21099 1 180.0000771 15.1670000 2
21097 21096 21098 21100 1 180.0000771 15.1670000 2
21094 21098 21096 21097 4 180.0000771 4.6024000 2
21091 21098 21100 21101 4 180.0000771 4.6024000 2
21096 21098 21100 21101 1 180.0000771 15.1670000 2
21099 21098 21100 21101 1 180.0000771 15.1670000 2
21091 21100 21098 21096 1 180.0000771 15.1670000 2
21091 21100 21098 21099 1 180.0000771 15.1670000 2
21096 21100 21098 21099 4 180.0000771 4.6024000 2
21102 21103 21104 21105 1 180.0000771 15.1670000 2
21102 21103 21104 21106 1 180.0000771 15.1670000 2
21105 21103 21104 21106 4 180.0000771 4.6024000 2
21102 21103 21112 21104 4 180.0000771 4.6024000 2
21102 21103 21112 21110 1 180.0000771 15.1670000 2
21102 21103 21112 21113 1 180.0000771 15.1670000 2
21104 21103 21112 21110 1 180.0000771 15.1670000 2
21104 21103 21112 21113 1 180.0000771 15.1670000 2
21105 21104 21103 21112 1 180.0000771 15.1670000 2
21106 21104 21103 21112 1 180.0000771 15.1670000 2
21103 21104 21106 21107 1 180.0000771 15.1670000 2
21103 21104 21106 21108 1 180.0000771 15.1670000 2
21105 21104 21106 21107 1 180.0000771 15.1670000 2
21105 21104 21106 21108 1 180.0000771 15.1670000 2
21104 21106 21108 21109 1 180.0000771 15.1670000 2
21104 21106 21108 21110 1 180.0000771 15.1670000 2
21107 21106 21108 21109 1 180.0000771 15.1670000 2
21107 21106 21108 21110 1 180.0000771 15.1670000 2
21104 21108 21106 21107 4 180.0000771 4.6024000 2
21106 21108 21110 21111 1 180.0000771 15.1670000 2
21106 21108 21110 21112 1 180.0000771 15.1670000 2
21109 21108 21110 21111 1 180.0000771 15.1670000 2
21109 21108 21110 21112 1 180.0000771 15.1670000 2
21106 21110 21108 21109 4 180.0000771 4.6024000 2
21103 21110 21112 21113 4 180.0000771 4.6024000 2
21108 21110 21112 21113 1 180.0000771 15.1670000 2
21111 21110 21112 21113 1 180.0000771 15.1670000 2
21103 21112 21110 21108 1 180.0000771 15.1670000 2
21103 21112 21110 21111 1 180.0000771 15.1670000 2
21108 21112 21110 21111 4 180.0000771 4.6024000 2
21114 21115 21116 21117 1 180.0000771 15.1670000 2
21114 21115 21116 21118 1 180.0000771 15.1670000 2
21117 21115 21116 21118 4 180.0000771 4.6024000 2
21114 21115 21124 21116 4 180.0000771 4.6024000 2
21114 21115 21124 21122 1 180.0000771 15.1670000 2
21114 21115 21124 21125 1 180.0000771 15.1670000 2
21116 21115 21124 21122 1 180.0000771 15.1670000 2
21116 21115 21124 21125 1 180.0000771 15.1670000 2
21117 21116 21115 21124 1 180.0000771 15.1670000 2
21118 21116 21115 21124 1 180.0000771 15.1670000 2
21115 21116 21118 21119 1 180.0000771 15.1670000 2
21115 21116 21118 21120 1 180.0000771 15.1670000 2
21117 21116 21118 21119 1 180.0000771 15.1670000 2
21117 21116 21118 21120 1 180.0000771 15.1670000 2
21116 21118 21120 21121 1 180.0000771 15.1670000 2
21116 21118 21120 21122 1 180.0000771 15.1670000 2
21119 21118 21120 21121 1 180.0000771 15.1670000 2
21119 21118 21120 21122 1 180.0000771 15.1670000 2
21116 21120 21118 21119 4 180.0000771 4.6024000 2
21118 21120 21122 21123 1 180.0000771 15.1670000 2
21118 21120 21122 21124 1 180.0000771 15.1670000 2
21121 21120 21122 21123 1 180.0000771 15.1670000 2
21121 21120 21122 21124 1 180.0000771 15.1670000 2
21118 21122 21120 21121 4 180.0000771 4.6024000 2
21115 21122 21124 21125 4 180.0000771 4.6024000 2
21120 21122 21124 21125 1 180.0000771 15.1670000 2
21123 21122 21124 21125 1 180.0000771 15.1670000 2
21115 21124 21122 21120 1 180.0000771 15.1670000 2
21115 21124 21122 21123 1 180.0000771 15.1670000 2
21120 21124 21122 21123 4 180.0000771 4.6024000 2
21126 21127 21128 21129 1 180.0000771 15.1670000 2
21126 21127 21128 21130 1 180.0000771 15.1670000 2
21129 21127 21128 21130 4 180.0000771 4.6024000 2
21126 21127 21136 21128 4 180.0000771 4.6024000 2
21126 21127 21136 21134 1 180.0000771 15.1670000 2
21126 21127 21136 21137 1 180.0000771 15.1670000 2
21128 21127 21136 21134 1 180.0000771 15.1670000 2
21128 21127 21136 21137 1 180.0000771 15.1670000 2
21129 21128 21127 21136 1 180.0000771 15.1670000 2
21130 21128 21127 21136 1 180.0000771 15.1670000 2
21127 21128 21130 21131 1 180.0000771 15.1670000 2
21127 21128 21130 21132 1 180.0000771 15.1670000 2
21129 21128 21130 21131 1 180.0000771 15.1670000 2
21129 21128 21130 21132 1 180.0000771 15.1670000 2
21128 21130 21132 21133 1 180.0000771 15.1670000 2
21128 21130 21132 21134 1 180.0000771 15.1670000 2
21131 21130 21132 21133 1 180.0000771 15.1670000 2
21131 21130 21132 21134 1 180.0000771 15.1670000 2
21128 21132 21130 21131 4 180.0000771 4.6024000 2
21130 21132 21134 21135 1 180.0000771 15.1670000 2
21130 21132 21134 21136 1 180.0000771 15.1670000 2
21133 21132 21134 21135 1 180.0000771 15.1670000 2
21133 21132 21134 21136 1 180.0000771 15.1670000 2
21130 21134 21132 21133 4 180.0000771 4.6024000 2
21127 21134 21136 21137 4 180.0000771 4.6024000 2
21132 21134 21136 21137 1 180.0000771 15.1670000 2
21135 21134 21136 21137 1 180.0000771 15.1670000 2
21127 21136 21134 21132 1 180.0000771 15.1670000 2
21127 21136 21134 21135 1 180.0000771 15.1670000 2
21132 21136 21134 21135 4 180.0000771 4.6024000 2
21138 21139 21140 21141 1 180.0000771 15.1670000 2
21138 21139 21140 21142 1 180.0000771 15.1670000 2
21141 21139 21140 21142 4 180.0000771 4.6024000 2
21138 21139 21148 21140 4 180.0000771 4.6024000 2
21138 21139 21148 21146 1 180.0000771 15.1670000 2
21138 21139 21148 21149 1 180.0000771 15.1670000 2
21140 21139 21148 21146 1 180.0000771 15.1670000 2
21140 21139 21148 21149 1 180.0000771 15.1670000 2
21141 21140 21139 21148 1 180.0000771 15.1670000 2
21142 21140 21139 21148 1 180.0000771 15.1670000 2
21139 21140 21142 21143 1 180.0000771 15.1670000 2
21139 21140 21142 21144 1 180.0000771 15.1670000 2
21141 21140 21142 21143 1 180.0000771 15.1670000 2
21141 21140 21142 21144 1 180.0000771 15.1670000 2
21140 21142 21144 21145 1 180.0000771 15.1670000 2
21140 21142 21144 21146 1 180.0000771 15.1670000 2
21143 21142 21144 21145 1 180.0000771 15.1670000 2
21143 21142 21144 21146 1 180.0000771 15.1670000 2
21140 21144 21142 21143 4 180.0000771 4.6024000 2
21142 21144 21146 21147 1 180.0000771 15.1670000 2
21142 21144 21146 21148 1 180.0000771 15.1670000 2
21145 21144 21146 21147 1 180.0000771 15.1670000 2
21145 21144 21146 21148 1 180.0000771 15.1670000 2
21142 21146 21144 21145 4 180.0000771 4.6024000 2
21139 21146 21148 21149 4 180.0000771 4.6024000 2
21144 21146 21148 21149 1 180.0000771 15.1670000 2
21147 21146 21148 21149 1 180.0000771 15.1670000 2
21139 21148 21146 21144 1 180.0000771 15.1670000 2
21139 21148 21146 21147 1 180.0000771 15.1670000 2
21144 21148 21146 21147 4 180.0000771 4.6024000 2
21150 21151 21152 21153 1 180.0000771 15.1670000 2
21150 21151 21152 21154 1 180.0000771 15.1670000 2
21153 21151 21152 21154 4 180.0000771 4.6024000 2
21150 21151 21160 21152 4 180.0000771 4.6024000 2
21150 21151 21160 21158 1 180.0000771 15.1670000 2
21150 21151 21160 21161 1 180.0000771 15.1670000 2
21152 21151 21160 21158 1 180.0000771 15.1670000 2
21152 21151 21160 21161 1 180.0000771 15.1670000 2
21153 21152 21151 21160 1 180.0000771 15.1670000 2
21154 21152 21151 21160 1 180.0000771 15.1670000 2
21151 21152 21154 21155 1 180.0000771 15.1670000 2
21151 21152 21154 21156 1 180.0000771 15.1670000 2
21153 21152 21154 21155 1 180.0000771 15.1670000 2
21153 21152 21154 21156 1 180.0000771 15.1670000 2
21152 21154 21156 21157 1 180.0000771 15.1670000 2
21152 21154 21156 21158 1 180.0000771 15.1670000 2
21155 21154 21156 21157 1 180.0000771 15.1670000 2
21155 21154 21156 21158 1 180.0000771 15.1670000 2
21152 21156 21154 21155 4 180.0000771 4.6024000 2
21154 21156 21158 21159 1 180.0000771 15.1670000 2
21154 21156 21158 21160 1 180.0000771 15.1670000 2
21157 21156 21158 21159 1 180.0000771 15.1670000 2
21157 21156 21158 21160 1 180.0000771 15.1670000 2
21154 21158 21156 21157 4 180.0000771 4.6024000 2
21151 21158 21160 21161 4 180.0000771 4.6024000 2
21156 21158 21160 21161 1 180.0000771 15.1670000 2
21159 21158 21160 21161 1 180.0000771 15.1670000 2
21151 21160 21158 21156 1 180.0000771 15.1670000 2
21151 21160 21158 21159 1 180.0000771 15.1670000 2
21156 21160 21158 21159 4 180.0000771 4.6024000 2
21162 21163 21164 21165 1 180.0000771 15.1670000 2
21162 21163 21164 21166 1 180.0000771 15.1670000 2
21165 21163 21164 21166 4 180.0000771 4.6024000 2
21162 21163 21172 21164 4 180.0000771 4.6024000 2
21162 21163 21172 21170 1 180.0000771 15.1670000 2
21162 21163 21172 21173 1 180.0000771 15.1670000 2
21164 21163 21172 21170 1 180.0000771 15.1670000 2
21164 21163 21172 21173 1 180.0000771 15.1670000 2
21165 21164 21163 21172 1 180.0000771 15.1670000 2
21166 21164 21163 21172 1 180.0000771 15.1670000 2
21163 21164 21166 21167 1 180.0000771 15.1670000 2
21163 21164 21166 21168 1 180.0000771 15.1670000 2
21165 21164 21166 21167 1 180.0000771 15.1670000 2
21165 21164 21166 21168 1 180.0000771 15.1670000 2
21164 21166 21168 21169 1 180.0000771 15.1670000 2
21164 21166 21168 21170 1 180.0000771 15.1670000 2
21167 21166 21168 21169 1 180.0000771 15.1670000 2
21167 21166 21168 21170 1 180.0000771 15.1670000 2
21164 21168 21166 21167 4 180.0000771 4.6024000 2
21166 21168 21170 21171 1 180.0000771 15.1670000 2
21166 21168 21170 21172 1 180.0000771 15.1670000 2
21169 21168 21170 21171 1 180.0000771 15.1670000 2
21169 21168 21170 21172 1 180.0000771 15.1670000 2
21166 21170 21168 21169 4 180.0000771 4.6024000 2
21163 21170 21172 21173 4 180.0000771 4.6024000 2
21168 21170 21172 21173 1 180.0000771 15.1670000 2
21171 21170 21172 21173 1 180.0000771 15.1670000 2
21163 21172 21170 21168 1 180.0000771 15.1670000 2
21163 21172 21170 21171 1 180.0000771 15.1670000 2
21168 21172 21170 21171 4 180.0000771 4.6024000 2
21174 21175 21176 21177 1 180.0000771 15.1670000 2
21174 21175 21176 21178 1 180.0000771 15.1670000 2
21177 21175 21176 21178 4 180.0000771 4.6024000 2
21174 21175 21184 21176 4 180.0000771 4.6024000 2
21174 21175 21184 21182 1 180.0000771 15.1670000 2
21174 21175 21184 21185 1 180.0000771 15.1670000 2
21176 21175 21184 21182 1 180.0000771 15.1670000 2
21176 21175 21184 21185 1 180.0000771 15.1670000 2
21177 21176 21175 21184 1 180.0000771 15.1670000 2
21178 21176 21175 21184 1 180.0000771 15.1670000 2
21175 21176 21178 21179 1 180.0000771 15.1670000 2
21175 21176 21178 21180 1 180.0000771 15.1670000 2
21177 21176 21178 21179 1 180.0000771 15.1670000 2
21177 21176 21178 21180 1 180.0000771 15.1670000 2
21176 21178 21180 21181 1 180.0000771 15.1670000 2
21176 21178 21180 21182 1 180.0000771 15.1670000 2
21179 21178 21180 21181 1 180.0000771 15.1670000 2
21179 21178 21180 21182 1 180.0000771 15.1670000 2
21176 21180 21178 21179 4 180.0000771 4.6024000 2
21178 21180 21182 21183 1 180.0000771 15.1670000 2
21178 21180 21182 21184 1 180.0000771 15.1670000 2
21181 21180 21182 21183 1 180.0000771 15.1670000 2
21181 21180 21182 21184 1 180.0000771 15.1670000 2
21178 21182 21180 21181 4 180.0000771 4.6024000 2
21175 21182 21184 21185 4 180.0000771 4.6024000 2
21180 21182 21184 21185 1 180.0000771 15.1670000 2
21183 21182 21184 21185 1 180.0000771 15.1670000 2
21175 21184 21182 21180 1 180.0000771 15.1670000 2
21175 21184 21182 21183 1 180.0000771 15.1670000 2
21180 21184 21182 21183 4 180.0000771 4.6024000 2
21186 21187 21188 21189 1 180.0000771 15.1670000 2
21186 21187 21188 21190 1 180.0000771 15.1670000 2
21189 21187 21188 21190 4 180.0000771 4.6024000 2
21186 21187 21196 21188 4 180.0000771 4.6024000 2
21186 21187 21196 21194 1 180.0000771 15.1670000 2
21186 21187 21196 21197 1 180.0000771 15.1670000 2
21188 21187 21196 21194 1 180.0000771 15.1670000 2
21188 21187 21196 21197 1 180.0000771 15.1670000 2
21189 21188 21187 21196 1 180.0000771 15.1670000 2
21190 21188 21187 21196 1 180.0000771 15.1670000 2
21187 21188 21190 21191 1 180.0000771 15.1670000 2
21187 21188 21190 21192 1 180.0000771 15.1670000 2
21189 21188 21190 21191 1 180.0000771 15.1670000 2
21189 21188 21190 21192 1 180.0000771 15.1670000 2
21188 21190 21192 21193 1 180.0000771 15.1670000 2
21188 21190 21192 21194 1 180.0000771 15.1670000 2
21191 21190 21192 21193 1 180.0000771 15.1670000 2
21191 21190 21192 21194 1 180.0000771 15.1670000 2
21188 21192 21190 21191 4 180.0000771 4.6024000 2
21190 21192 21194 21195 1 180.0000771 15.1670000 2
21190 21192 21194 21196 1 180.0000771 15.1670000 2
21193 21192 21194 21195 1 180.0000771 15.1670000 2
21193 21192 21194 21196 1 180.0000771 15.1670000 2
21190 21194 21192 21193 4 180.0000771 4.6024000 2
21187 21194 21196 21197 4 180.0000771 4.6024000 2
21192 21194 21196 21197 1 180.0000771 15.1670000 2
21195 21194 21196 21197 1 180.0000771 15.1670000 2
21187 21196 21194 21192 1 180.0000771 15.1670000 2
21187 21196 21194 21195 1 180.0000771 15.1670000 2
21192 21196 21194 21195 4 180.0000771 4.6024000 2
21198 21199 21200 21201 1 180.0000771 15.1670000 2
21198 21199 21200 21202 1 180.0000771 15.1670000 2
21201 21199 21200 21202 4 180.0000771 4.6024000 2
21198 21199 21208 21200 4 180.0000771 4.6024000 2
21198 21199 21208 21206 1 180.0000771 15.1670000 2
21198 21199 21208 21209 1 180.0000771 15.1670000 2
21200 21199 21208 21206 1 180.0000771 15.1670000 2
21200 21199 21208 21209 1 180.0000771 15.1670000 2
21201 21200 21199 21208 1 180.0000771 15.1670000 2
21202 21200 21199 21208 1 180.0000771 15.1670000 2
21199 21200 21202 21203 1 180.0000771 15.1670000 2
21199 21200 21202 21204 1 180.0000771 15.1670000 2
21201 21200 21202 21203 1 180.0000771 15.1670000 2
21201 21200 21202 21204 1 180.0000771 15.1670000 2
21200 21202 21204 21205 1 180.0000771 15.1670000 2
21200 21202 21204 21206 1 180.0000771 15.1670000 2
21203 21202 21204 21205 1 180.0000771 15.1670000 2
21203 21202 21204 21206 1 180.0000771 15.1670000 2
21200 21204 21202 21203 4 180.0000771 4.6024000 2
21202 21204 21206 21207 1 180.0000771 15.1670000 2
21202 21204 21206 21208 1 180.0000771 15.1670000 2
21205 21204 21206 21207 1 180.0000771 15.1670000 2
21205 21204 21206 21208 1 180.0000771 15.1670000 2
21202 21206 21204 21205 4 180.0000771 4.6024000 2
21199 21206 21208 21209 4 180.0000771 4.6024000 2
21204 21206 21208 21209 1 180.0000771 15.1670000 2
21207 21206 21208 21209 1 180.0000771 15.1670000 2
21199 21208 21206 21204 1 180.0000771 15.1670000 2
21199 21208 21206 21207 1 180.0000771 15.1670000 2
21204 21208 21206 21207 4 180.0000771 4.6024000 2
21210 21211 21212 21213 1 180.0000771 15.1670000 2
21210 21211 21212 21214 1 180.0000771 15.1670000 2
21213 21211 21212 21214 4 180.0000771 4.6024000 2
21210 21211 21220 21212 4 180.0000771 4.6024000 2
21210 21211 21220 21218 1 180.0000771 15.1670000 2
21210 21211 21220 21221 1 180.0000771 15.1670000 2
21212 21211 21220 21218 1 180.0000771 15.1670000 2
21212 21211 21220 21221 1 180.0000771 15.1670000 2
21213 21212 21211 21220 1 180.0000771 15.1670000 2
21214 21212 21211 21220 1 180.0000771 15.1670000 2
21211 21212 21214 21215 1 180.0000771 15.1670000 2
21211 21212 21214 21216 1 180.0000771 15.1670000 2
21213 21212 21214 21215 1 180.0000771 15.1670000 2
21213 21212 21214 21216 1 180.0000771 15.1670000 2
21212 21214 21216 21217 1 180.0000771 15.1670000 2
21212 21214 21216 21218 1 180.0000771 15.1670000 2
21215 21214 21216 21217 1 180.0000771 15.1670000 2
21215 21214 21216 21218 1 180.0000771 15.1670000 2
21212 21216 21214 21215 4 180.0000771 4.6024000 2
21214 21216 21218 21219 1 180.0000771 15.1670000 2
21214 21216 21218 21220 1 180.0000771 15.1670000 2
21217 21216 21218 21219 1 180.0000771 15.1670000 2
21217 21216 21218 21220 1 180.0000771 15.1670000 2
21214 21218 21216 21217 4 180.0000771 4.6024000 2
21211 21218 21220 21221 4 180.0000771 4.6024000 2
21216 21218 21220 21221 1 180.0000771 15.1670000 2
21219 21218 21220 21221 1 180.0000771 15.1670000 2
21211 21220 21218 21216 1 180.0000771 15.1670000 2
21211 21220 21218 21219 1 180.0000771 15.1670000 2
21216 21220 21218 21219 4 180.0000771 4.6024000 2
21222 21223 21224 21225 1 180.0000771 15.1670000 2
21222 21223 21224 21226 1 180.0000771 15.1670000 2
21225 21223 21224 21226 4 180.0000771 4.6024000 2
21222 21223 21232 21224 4 180.0000771 4.6024000 2
21222 21223 21232 21230 1 180.0000771 15.1670000 2
21222 21223 21232 21233 1 180.0000771 15.1670000 2
21224 21223 21232 21230 1 180.0000771 15.1670000 2
21224 21223 21232 21233 1 180.0000771 15.1670000 2
21225 21224 21223 21232 1 180.0000771 15.1670000 2
21226 21224 21223 21232 1 180.0000771 15.1670000 2
21223 21224 21226 21227 1 180.0000771 15.1670000 2
21223 21224 21226 21228 1 180.0000771 15.1670000 2
21225 21224 21226 21227 1 180.0000771 15.1670000 2
21225 21224 21226 21228 1 180.0000771 15.1670000 2
21224 21226 21228 21229 1 180.0000771 15.1670000 2
21224 21226 21228 21230 1 180.0000771 15.1670000 2
21227 21226 21228 21229 1 180.0000771 15.1670000 2
21227 21226 21228 21230 1 180.0000771 15.1670000 2
21224 21228 21226 21227 4 180.0000771 4.6024000 2
21226 21228 21230 21231 1 180.0000771 15.1670000 2
21226 21228 21230 21232 1 180.0000771 15.1670000 2
21229 21228 21230 21231 1 180.0000771 15.1670000 2
21229 21228 21230 21232 1 180.0000771 15.1670000 2
21226 21230 21228 21229 4 180.0000771 4.6024000 2
21223 21230 21232 21233 4 180.0000771 4.6024000 2
21228 21230 21232 21233 1 180.0000771 15.1670000 2
21231 21230 21232 21233 1 180.0000771 15.1670000 2
21223 21232 21230 21228 1 180.0000771 15.1670000 2
21223 21232 21230 21231 1 180.0000771 15.1670000 2
21228 21232 21230 21231 4 180.0000771 4.6024000 2
21234 21235 21236 21237 1 180.0000771 15.1670000 2
21234 21235 21236 21238 1 180.0000771 15.1670000 2
21237 21235 21236 21238 4 180.0000771 4.6024000 2
21234 21235 21244 21236 4 180.0000771 4.6024000 2
21234 21235 21244 21242 1 180.0000771 15.1670000 2
21234 21235 21244 21245 1 180.0000771 15.1670000 2
21236 21235 21244 21242 1 180.0000771 15.1670000 2
21236 21235 21244 21245 1 180.0000771 15.1670000 2
21237 21236 21235 21244 1 180.0000771 15.1670000 2
21238 21236 21235 21244 1 180.0000771 15.1670000 2
21235 21236 21238 21239 1 180.0000771 15.1670000 2
21235 21236 21238 21240 1 180.0000771 15.1670000 2
21237 21236 21238 21239 1 180.0000771 15.1670000 2
21237 21236 21238 21240 1 180.0000771 15.1670000 2
21236 21238 21240 21241 1 180.0000771 15.1670000 2
21236 21238 21240 21242 1 180.0000771 15.1670000 2
21239 21238 21240 21241 1 180.0000771 15.1670000 2
21239 21238 21240 21242 1 180.0000771 15.1670000 2
21236 21240 21238 21239 4 180.0000771 4.6024000 2
21238 21240 21242 21243 1 180.0000771 15.1670000 2
21238 21240 21242 21244 1 180.0000771 15.1670000 2
21241 21240 21242 21243 1 180.0000771 15.1670000 2
21241 21240 21242 21244 1 180.0000771 15.1670000 2
21238 21242 21240 21241 4 180.0000771 4.6024000 2
21235 21242 21244 21245 4 180.0000771 4.6024000 2
21240 21242 21244 21245 1 180.0000771 15.1670000 2
21243 21242 21244 21245 1 180.0000771 15.1670000 2
21235 21244 21242 21240 1 180.0000771 15.1670000 2
21235 21244 21242 21243 1 180.0000771 15.1670000 2
21240 21244 21242 21243 4 180.0000771 4.6024000 2
21246 21247 21248 21249 1 180.0000771 15.1670000 2
21246 21247 21248 21250 1 180.0000771 15.1670000 2
21249 21247 21248 21250 4 180.0000771 4.6024000 2
21246 21247 21256 21248 4 180.0000771 4.6024000 2
21246 21247 21256 21254 1 180.0000771 15.1670000 2
21246 21247 21256 21257 1 180.0000771 15.1670000 2
21248 21247 21256 21254 1 180.0000771 15.1670000 2
21248 21247 21256 21257 1 180.0000771 15.1670000 2
21249 21248 21247 21256 1 180.0000771 15.1670000 2
21250 21248 21247 21256 1 180.0000771 15.1670000 2
21247 21248 21250 21251 1 180.0000771 15.1670000 2
21247 21248 21250 21252 1 180.0000771 15.1670000 2
21249 21248 21250 21251 1 180.0000771 15.1670000 2
21249 21248 21250 21252 1 180.0000771 15.1670000 2
21248 21250 21252 21253 1 180.0000771 15.1670000 2
21248 21250 21252 21254 1 180.0000771 15.1670000 2
21251 21250 21252 21253 1 180.0000771 15.1670000 2
21251 21250 21252 21254 1 180.0000771 15.1670000 2
21248 21252 21250 21251 4 180.0000771 4.6024000 2
21250 21252 21254 21255 1 180.0000771 15.1670000 2
21250 21252 21254 21256 1 180.0000771 15.1670000 2
21253 21252 21254 21255 1 180.0000771 15.1670000 2
21253 21252 21254 21256 1 180.0000771 15.1670000 2
21250 21254 21252 21253 4 180.0000771 4.6024000 2
21247 21254 21256 21257 4 180.0000771 4.6024000 2
21252 21254 21256 21257 1 180.0000771 15.1670000 2
21255 21254 21256 21257 1 180.0000771 15.1670000 2
21247 21256 21254 21252 1 180.0000771 15.1670000 2
21247 21256 21254 21255 1 180.0000771 15.1670000 2
21252 21256 21254 21255 4 180.0000771 4.6024000 2
21258 21259 21260 21261 1 180.0000771 15.1670000 2
21258 21259 21260 21262 1 180.0000771 15.1670000 2
21261 21259 21260 21262 4 180.0000771 4.6024000 2
21258 21259 21268 21260 4 180.0000771 4.6024000 2
21258 21259 21268 21266 1 180.0000771 15.1670000 2
21258 21259 21268 21269 1 180.0000771 15.1670000 2
21260 21259 21268 21266 1 180.0000771 15.1670000 2
21260 21259 21268 21269 1 180.0000771 15.1670000 2
21261 21260 21259 21268 1 180.0000771 15.1670000 2
21262 21260 21259 21268 1 180.0000771 15.1670000 2
21259 21260 21262 21263 1 180.0000771 15.1670000 2
21259 21260 21262 21264 1 180.0000771 15.1670000 2
21261 21260 21262 21263 1 180.0000771 15.1670000 2
21261 21260 21262 21264 1 180.0000771 15.1670000 2
21260 21262 21264 21265 1 180.0000771 15.1670000 2
21260 21262 21264 21266 1 180.0000771 15.1670000 2
21263 21262 21264 21265 1 180.0000771 15.1670000 2
21263 21262 21264 21266 1 180.0000771 15.1670000 2
21260 21264 21262 21263 4 180.0000771 4.6024000 2
21262 21264 21266 21267 1 180.0000771 15.1670000 2
21262 21264 21266 21268 1 180.0000771 15.1670000 2
21265 21264 21266 21267 1 180.0000771 15.1670000 2
21265 21264 21266 21268 1 180.0000771 15.1670000 2
21262 21266 21264 21265 4 180.0000771 4.6024000 2
21259 21266 21268 21269 4 180.0000771 4.6024000 2
21264 21266 21268 21269 1 180.0000771 15.1670000 2
21267 21266 21268 21269 1 180.0000771 15.1670000 2
21259 21268 21266 21264 1 180.0000771 15.1670000 2
21259 21268 21266 21267 1 180.0000771 15.1670000 2
21264 21268 21266 21267 4 180.0000771 4.6024000 2
21270 21271 21272 21273 1 180.0000771 15.1670000 2
21270 21271 21272 21274 1 180.0000771 15.1670000 2
21273 21271 21272 21274 4 180.0000771 4.6024000 2
21270 21271 21280 21272 4 180.0000771 4.6024000 2
21270 21271 21280 21278 1 180.0000771 15.1670000 2
21270 21271 21280 21281 1 180.0000771 15.1670000 2
21272 21271 21280 21278 1 180.0000771 15.1670000 2
21272 21271 21280 21281 1 180.0000771 15.1670000 2
21273 21272 21271 21280 1 180.0000771 15.1670000 2
21274 21272 21271 21280 1 180.0000771 15.1670000 2
21271 21272 21274 21275 1 180.0000771 15.1670000 2
21271 21272 21274 21276 1 180.0000771 15.1670000 2
21273 21272 21274 21275 1 180.0000771 15.1670000 2
21273 21272 21274 21276 1 180.0000771 15.1670000 2
21272 21274 21276 21277 1 180.0000771 15.1670000 2
21272 21274 21276 21278 1 180.0000771 15.1670000 2
21275 21274 21276 21277 1 180.0000771 15.1670000 2
21275 21274 21276 21278 1 180.0000771 15.1670000 2
21272 21276 21274 21275 4 180.0000771 4.6024000 2
21274 21276 21278 21279 1 180.0000771 15.1670000 2
21274 21276 21278 21280 1 180.0000771 15.1670000 2
21277 21276 21278 21279 1 180.0000771 15.1670000 2
21277 21276 21278 21280 1 180.0000771 15.1670000 2
21274 21278 21276 21277 4 180.0000771 4.6024000 2
21271 21278 21280 21281 4 180.0000771 4.6024000 2
21276 21278 21280 21281 1 180.0000771 15.1670000 2
21279 21278 21280 21281 1 180.0000771 15.1670000 2
21271 21280 21278 21276 1 180.0000771 15.1670000 2
21271 21280 21278 21279 1 180.0000771 15.1670000 2
21276 21280 21278 21279 4 180.0000771 4.6024000 2
21282 21283 21284 21285 1 180.0000771 15.1670000 2
21282 21283 21284 21286 1 180.0000771 15.1670000 2
21285 21283 21284 21286 4 180.0000771 4.6024000 2
21282 21283 21292 21284 4 180.0000771 4.6024000 2
21282 21283 21292 21290 1 180.0000771 15.1670000 2
21282 21283 21292 21293 1 180.0000771 15.1670000 2
21284 21283 21292 21290 1 180.0000771 15.1670000 2
21284 21283 21292 21293 1 180.0000771 15.1670000 2
21285 21284 21283 21292 1 180.0000771 15.1670000 2
21286 21284 21283 21292 1 180.0000771 15.1670000 2
21283 21284 21286 21287 1 180.0000771 15.1670000 2
21283 21284 21286 21288 1 180.0000771 15.1670000 2
21285 21284 21286 21287 1 180.0000771 15.1670000 2
21285 21284 21286 21288 1 180.0000771 15.1670000 2
21284 21286 21288 21289 1 180.0000771 15.1670000 2
21284 21286 21288 21290 1 180.0000771 15.1670000 2
21287 21286 21288 21289 1 180.0000771 15.1670000 2
21287 21286 21288 21290 1 180.0000771 15.1670000 2
21284 21288 21286 21287 4 180.0000771 4.6024000 2
21286 21288 21290 21291 1 180.0000771 15.1670000 2
21286 21288 21290 21292 1 180.0000771 15.1670000 2
21289 21288 21290 21291 1 180.0000771 15.1670000 2
21289 21288 21290 21292 1 180.0000771 15.1670000 2
21286 21290 21288 21289 4 180.0000771 4.6024000 2
21283 21290 21292 21293 4 180.0000771 4.6024000 2
21288 21290 21292 21293 1 180.0000771 15.1670000 2
21291 21290 21292 21293 1 180.0000771 15.1670000 2
21283 21292 21290 21288 1 180.0000771 15.1670000 2
21283 21292 21290 21291 1 180.0000771 15.1670000 2
21288 21292 21290 21291 4 180.0000771 4.6024000 2
21294 21295 21296 21297 1 180.0000771 15.1670000 2
21294 21295 21296 21298 1 180.0000771 15.1670000 2
21297 21295 21296 21298 4 180.0000771 4.6024000 2
21294 21295 21304 21296 4 180.0000771 4.6024000 2
21294 21295 21304 21302 1 180.0000771 15.1670000 2
21294 21295 21304 21305 1 180.0000771 15.1670000 2
21296 21295 21304 21302 1 180.0000771 15.1670000 2
21296 21295 21304 21305 1 180.0000771 15.1670000 2
21297 21296 21295 21304 1 180.0000771 15.1670000 2
21298 21296 21295 21304 1 180.0000771 15.1670000 2
21295 21296 21298 21299 1 180.0000771 15.1670000 2
21295 21296 21298 21300 1 180.0000771 15.1670000 2
21297 21296 21298 21299 1 180.0000771 15.1670000 2
21297 21296 21298 21300 1 180.0000771 15.1670000 2
21296 21298 21300 21301 1 180.0000771 15.1670000 2
21296 21298 21300 21302 1 180.0000771 15.1670000 2
21299 21298 21300 21301 1 180.0000771 15.1670000 2
21299 21298 21300 21302 1 180.0000771 15.1670000 2
21296 21300 21298 21299 4 180.0000771 4.6024000 2
21298 21300 21302 21303 1 180.0000771 15.1670000 2
21298 21300 21302 21304 1 180.0000771 15.1670000 2
21301 21300 21302 21303 1 180.0000771 15.1670000 2
21301 21300 21302 21304 1 180.0000771 15.1670000 2
21298 21302 21300 21301 4 180.0000771 4.6024000 2
21295 21302 21304 21305 4 180.0000771 4.6024000 2
21300 21302 21304 21305 1 180.0000771 15.1670000 2
21303 21302 21304 21305 1 180.0000771 15.1670000 2
21295 21304 21302 21300 1 180.0000771 15.1670000 2
21295 21304 21302 21303 1 180.0000771 15.1670000 2
21300 21304 21302 21303 4 180.0000771 4.6024000 2
21306 21307 21308 21309 1 180.0000771 15.1670000 2
21306 21307 21308 21310 1 180.0000771 15.1670000 2
21309 21307 21308 21310 4 180.0000771 4.6024000 2
21306 21307 21316 21308 4 180.0000771 4.6024000 2
21306 21307 21316 21314 1 180.0000771 15.1670000 2
21306 21307 21316 21317 1 180.0000771 15.1670000 2
21308 21307 21316 21314 1 180.0000771 15.1670000 2
21308 21307 21316 21317 1 180.0000771 15.1670000 2
21309 21308 21307 21316 1 180.0000771 15.1670000 2
21310 21308 21307 21316 1 180.0000771 15.1670000 2
21307 21308 21310 21311 1 180.0000771 15.1670000 2
21307 21308 21310 21312 1 180.0000771 15.1670000 2
21309 21308 21310 21311 1 180.0000771 15.1670000 2
21309 21308 21310 21312 1 180.0000771 15.1670000 2
21308 21310 21312 21313 1 180.0000771 15.1670000 2
21308 21310 21312 21314 1 180.0000771 15.1670000 2
21311 21310 21312 21313 1 180.0000771 15.1670000 2
21311 21310 21312 21314 1 180.0000771 15.1670000 2
21308 21312 21310 21311 4 180.0000771 4.6024000 2
21310 21312 21314 21315 1 180.0000771 15.1670000 2
21310 21312 21314 21316 1 180.0000771 15.1670000 2
21313 21312 21314 21315 1 180.0000771 15.1670000 2
21313 21312 21314 21316 1 180.0000771 15.1670000 2
21310 21314 21312 21313 4 180.0000771 4.6024000 2
21307 21314 21316 21317 4 180.0000771 4.6024000 2
21312 21314 21316 21317 1 180.0000771 15.1670000 2
21315 21314 21316 21317 1 180.0000771 15.1670000 2
21307 21316 21314 21312 1 180.0000771 15.1670000 2
21307 21316 21314 21315 1 180.0000771 15.1670000 2
21312 21316 21314 21315 4 180.0000771 4.6024000 2
21318 21319 21320 21321 1 180.0000771 15.1670000 2
21318 21319 21320 21322 1 180.0000771 15.1670000 2
21321 21319 21320 21322 4 180.0000771 4.6024000 2
21318 21319 21328 21320 4 180.0000771 4.6024000 2
21318 21319 21328 21326 1 180.0000771 15.1670000 2
21318 21319 21328 21329 1 180.0000771 15.1670000 2
21320 21319 21328 21326 1 180.0000771 15.1670000 2
21320 21319 21328 21329 1 180.0000771 15.1670000 2
21321 21320 21319 21328 1 180.0000771 15.1670000 2
21322 21320 21319 21328 1 180.0000771 15.1670000 2
21319 21320 21322 21323 1 180.0000771 15.1670000 2
21319 21320 21322 21324 1 180.0000771 15.1670000 2
21321 21320 21322 21323 1 180.0000771 15.1670000 2
21321 21320 21322 21324 1 180.0000771 15.1670000 2
21320 21322 21324 21325 1 180.0000771 15.1670000 2
21320 21322 21324 21326 1 180.0000771 15.1670000 2
21323 21322 21324 21325 1 180.0000771 15.1670000 2
21323 21322 21324 21326 1 180.0000771 15.1670000 2
21320 21324 21322 21323 4 180.0000771 4.6024000 2
21322 21324 21326 21327 1 180.0000771 15.1670000 2
21322 21324 21326 21328 1 180.0000771 15.1670000 2
21325 21324 21326 21327 1 180.0000771 15.1670000 2
21325 21324 21326 21328 1 180.0000771 15.1670000 2
21322 21326 21324 21325 4 180.0000771 4.6024000 2
21319 21326 21328 21329 4 180.0000771 4.6024000 2
21324 21326 21328 21329 1 180.0000771 15.1670000 2
21327 21326 21328 21329 1 180.0000771 15.1670000 2
21319 21328 21326 21324 1 180.0000771 15.1670000 2
21319 21328 21326 21327 1 180.0000771 15.1670000 2
21324 21328 21326 21327 4 180.0000771 4.6024000 2
21330 21331 21332 21333 1 180.0000771 15.1670000 2
21330 21331 21332 21334 1 180.0000771 15.1670000 2
21333 21331 21332 21334 4 180.0000771 4.6024000 2
21330 21331 21340 21332 4 180.0000771 4.6024000 2
21330 21331 21340 21338 1 180.0000771 15.1670000 2
21330 21331 21340 21341 1 180.0000771 15.1670000 2
21332 21331 21340 21338 1 180.0000771 15.1670000 2
21332 21331 21340 21341 1 180.0000771 15.1670000 2
21333 21332 21331 21340 1 180.0000771 15.1670000 2
21334 21332 21331 21340 1 180.0000771 15.1670000 2
21331 21332 21334 21335 1 180.0000771 15.1670000 2
21331 21332 21334 21336 1 180.0000771 15.1670000 2
21333 21332 21334 21335 1 180.0000771 15.1670000 2
21333 21332 21334 21336 1 180.0000771 15.1670000 2
21332 21334 21336 21337 1 180.0000771 15.1670000 2
21332 21334 21336 21338 1 180.0000771 15.1670000 2
21335 21334 21336 21337 1 180.0000771 15.1670000 2
21335 21334 21336 21338 1 180.0000771 15.1670000 2
21332 21336 21334 21335 4 180.0000771 4.6024000 2
21334 21336 21338 21339 1 180.0000771 15.1670000 2
21334 21336 21338 21340 1 180.0000771 15.1670000 2
21337 21336 21338 21339 1 180.0000771 15.1670000 2
21337 21336 21338 21340 1 180.0000771 15.1670000 2
21334 21338 21336 21337 4 180.0000771 4.6024000 2
21331 21338 21340 21341 4 180.0000771 4.6024000 2
21336 21338 21340 21341 1 180.0000771 15.1670000 2
21339 21338 21340 21341 1 180.0000771 15.1670000 2
21331 21340 21338 21336 1 180.0000771 15.1670000 2
21331 21340 21338 21339 1 180.0000771 15.1670000 2
21336 21340 21338 21339 4 180.0000771 4.6024000 2
21342 21343 21344 21345 1 180.0000771 15.1670000 2
21342 21343 21344 21346 1 180.0000771 15.1670000 2
21345 21343 21344 21346 4 180.0000771 4.6024000 2
21342 21343 21352 21344 4 180.0000771 4.6024000 2
21342 21343 21352 21350 1 180.0000771 15.1670000 2
21342 21343 21352 21353 1 180.0000771 15.1670000 2
21344 21343 21352 21350 1 180.0000771 15.1670000 2
21344 21343 21352 21353 1 180.0000771 15.1670000 2
21345 21344 21343 21352 1 180.0000771 15.1670000 2
21346 21344 21343 21352 1 180.0000771 15.1670000 2
21343 21344 21346 21347 1 180.0000771 15.1670000 2
21343 21344 21346 21348 1 180.0000771 15.1670000 2
21345 21344 21346 21347 1 180.0000771 15.1670000 2
21345 21344 21346 21348 1 180.0000771 15.1670000 2
21344 21346 21348 21349 1 180.0000771 15.1670000 2
21344 21346 21348 21350 1 180.0000771 15.1670000 2
21347 21346 21348 21349 1 180.0000771 15.1670000 2
21347 21346 21348 21350 1 180.0000771 15.1670000 2
21344 21348 21346 21347 4 180.0000771 4.6024000 2
21346 21348 21350 21351 1 180.0000771 15.1670000 2
21346 21348 21350 21352 1 180.0000771 15.1670000 2
21349 21348 21350 21351 1 180.0000771 15.1670000 2
21349 21348 21350 21352 1 180.0000771 15.1670000 2
21346 21350 21348 21349 4 180.0000771 4.6024000 2
21343 21350 21352 21353 4 180.0000771 4.6024000 2
21348 21350 21352 21353 1 180.0000771 15.1670000 2
21351 21350 21352 21353 1 180.0000771 15.1670000 2
21343 21352 21350 21348 1 180.0000771 15.1670000 2
21343 21352 21350 21351 1 180.0000771 15.1670000 2
21348 21352 21350 21351 4 180.0000771 4.6024000 2
21354 21355 21356 21357 1 180.0000771 15.1670000 2
21354 21355 21356 21358 1 180.0000771 15.1670000 2
21357 21355 21356 21358 4 180.0000771 4.6024000 2
21354 21355 21364 21356 4 180.0000771 4.6024000 2
21354 21355 21364 21362 1 180.0000771 15.1670000 2
21354 21355 21364 21365 1 180.0000771 15.1670000 2
21356 21355 21364 21362 1 180.0000771 15.1670000 2
21356 21355 21364 21365 1 180.0000771 15.1670000 2
21357 21356 21355 21364 1 180.0000771 15.1670000 2
21358 21356 21355 21364 1 180.0000771 15.1670000 2
21355 21356 21358 21359 1 180.0000771 15.1670000 2
21355 21356 21358 21360 1 180.0000771 15.1670000 2
21357 21356 21358 21359 1 180.0000771 15.1670000 2
21357 21356 21358 21360 1 180.0000771 15.1670000 2
21356 21358 21360 21361 1 180.0000771 15.1670000 2
21356 21358 21360 21362 1 180.0000771 15.1670000 2
21359 21358 21360 21361 1 180.0000771 15.1670000 2
21359 21358 21360 21362 1 180.0000771 15.1670000 2
21356 21360 21358 21359 4 180.0000771 4.6024000 2
21358 21360 21362 21363 1 180.0000771 15.1670000 2
21358 21360 21362 21364 1 180.0000771 15.1670000 2
21361 21360 21362 21363 1 180.0000771 15.1670000 2
21361 21360 21362 21364 1 180.0000771 15.1670000 2
21358 21362 21360 21361 4 180.0000771 4.6024000 2
21355 21362 21364 21365 4 180.0000771 4.6024000 2
21360 21362 21364 21365 1 180.0000771 15.1670000 2
21363 21362 21364 21365 1 180.0000771 15.1670000 2
21355 21364 21362 21360 1 180.0000771 15.1670000 2
21355 21364 21362 21363 1 180.0000771 15.1670000 2
21360 21364 21362 21363 4 180.0000771 4.6024000 2
21366 21367 21368 21369 1 180.0000771 15.1670000 2
21366 21367 21368 21370 1 180.0000771 15.1670000 2
21369 21367 21368 21370 4 180.0000771 4.6024000 2
21366 21367 21376 21368 4 180.0000771 4.6024000 2
21366 21367 21376 21374 1 180.0000771 15.1670000 2
21366 21367 21376 21377 1 180.0000771 15.1670000 2
21368 21367 21376 21374 1 180.0000771 15.1670000 2
21368 21367 21376 21377 1 180.0000771 15.1670000 2
21369 21368 21367 21376 1 180.0000771 15.1670000 2
21370 21368 21367 21376 1 180.0000771 15.1670000 2
21367 21368 21370 21371 1 180.0000771 15.1670000 2
21367 21368 21370 21372 1 180.0000771 15.1670000 2
21369 21368 21370 21371 1 180.0000771 15.1670000 2
21369 21368 21370 21372 1 180.0000771 15.1670000 2
21368 21370 21372 21373 1 180.0000771 15.1670000 2
21368 21370 21372 21374 1 180.0000771 15.1670000 2
21371 21370 21372 21373 1 180.0000771 15.1670000 2
21371 21370 21372 21374 1 180.0000771 15.1670000 2
21368 21372 21370 21371 4 180.0000771 4.6024000 2
21370 21372 21374 21375 1 180.0000771 15.1670000 2
21370 21372 21374 21376 1 180.0000771 15.1670000 2
21373 21372 21374 21375 1 180.0000771 15.1670000 2
21373 21372 21374 21376 1 180.0000771 15.1670000 2
21370 21374 21372 21373 4 180.0000771 4.6024000 2
21367 21374 21376 21377 4 180.0000771 4.6024000 2
21372 21374 21376 21377 1 180.0000771 15.1670000 2
21375 21374 21376 21377 1 180.0000771 15.1670000 2
21367 21376 21374 21372 1 180.0000771 15.1670000 2
21367 21376 21374 21375 1 180.0000771 15.1670000 2
21372 21376 21374 21375 4 180.0000771 4.6024000 2
21378 21379 21380 21381 1 180.0000771 15.1670000 2
21378 21379 21380 21382 1 180.0000771 15.1670000 2
21381 21379 21380 21382 4 180.0000771 4.6024000 2
21378 21379 21388 21380 4 180.0000771 4.6024000 2
21378 21379 21388 21386 1 180.0000771 15.1670000 2
21378 21379 21388 21389 1 180.0000771 15.1670000 2
21380 21379 21388 21386 1 180.0000771 15.1670000 2
21380 21379 21388 21389 1 180.0000771 15.1670000 2
21381 21380 21379 21388 1 180.0000771 15.1670000 2
21382 21380 21379 21388 1 180.0000771 15.1670000 2
21379 21380 21382 21383 1 180.0000771 15.1670000 2
21379 21380 21382 21384 1 180.0000771 15.1670000 2
21381 21380 21382 21383 1 180.0000771 15.1670000 2
21381 21380 21382 21384 1 180.0000771 15.1670000 2
21380 21382 21384 21385 1 180.0000771 15.1670000 2
21380 21382 21384 21386 1 180.0000771 15.1670000 2
21383 21382 21384 21385 1 180.0000771 15.1670000 2
21383 21382 21384 21386 1 180.0000771 15.1670000 2
21380 21384 21382 21383 4 180.0000771 4.6024000 2
21382 21384 21386 21387 1 180.0000771 15.1670000 2
21382 21384 21386 21388 1 180.0000771 15.1670000 2
21385 21384 21386 21387 1 180.0000771 15.1670000 2
21385 21384 21386 21388 1 180.0000771 15.1670000 2
21382 21386 21384 21385 4 180.0000771 4.6024000 2
21379 21386 21388 21389 4 180.0000771 4.6024000 2
21384 21386 21388 21389 1 180.0000771 15.1670000 2
21387 21386 21388 21389 1 180.0000771 15.1670000 2
21379 21388 21386 21384 1 180.0000771 15.1670000 2
21379 21388 21386 21387 1 180.0000771 15.1670000 2
21384 21388 21386 21387 4 180.0000771 4.6024000 2
21390 21391 21392 21393 1 180.0000771 15.1670000 2
21390 21391 21392 21394 1 180.0000771 15.1670000 2
21393 21391 21392 21394 4 180.0000771 4.6024000 2
21390 21391 21400 21392 4 180.0000771 4.6024000 2
21390 21391 21400 21398 1 180.0000771 15.1670000 2
21390 21391 21400 21401 1 180.0000771 15.1670000 2
21392 21391 21400 21398 1 180.0000771 15.1670000 2
21392 21391 21400 21401 1 180.0000771 15.1670000 2
21393 21392 21391 21400 1 180.0000771 15.1670000 2
21394 21392 21391 21400 1 180.0000771 15.1670000 2
21391 21392 21394 21395 1 180.0000771 15.1670000 2
21391 21392 21394 21396 1 180.0000771 15.1670000 2
21393 21392 21394 21395 1 180.0000771 15.1670000 2
21393 21392 21394 21396 1 180.0000771 15.1670000 2
21392 21394 21396 21397 1 180.0000771 15.1670000 2
21392 21394 21396 21398 1 180.0000771 15.1670000 2
21395 21394 21396 21397 1 180.0000771 15.1670000 2
21395 21394 21396 21398 1 180.0000771 15.1670000 2
21392 21396 21394 21395 4 180.0000771 4.6024000 2
21394 21396 21398 21399 1 180.0000771 15.1670000 2
21394 21396 21398 21400 1 180.0000771 15.1670000 2
21397 21396 21398 21399 1 180.0000771 15.1670000 2
21397 21396 21398 21400 1 180.0000771 15.1670000 2
21394 21398 21396 21397 4 180.0000771 4.6024000 2
21391 21398 21400 21401 4 180.0000771 4.6024000 2
21396 21398 21400 21401 1 180.0000771 15.1670000 2
21399 21398 21400 21401 1 180.0000771 15.1670000 2
21391 21400 21398 21396 1 180.0000771 15.1670000 2
21391 21400 21398 21399 1 180.0000771 15.1670000 2
21396 21400 21398 21399 4 180.0000771 4.6024000 2
21402 21403 21404 21405 1 180.0000771 15.1670000 2
21402 21403 21404 21406 1 180.0000771 15.1670000 2
21405 21403 21404 21406 4 180.0000771 4.6024000 2
21402 21403 21412 21404 4 180.0000771 4.6024000 2
21402 21403 21412 21410 1 180.0000771 15.1670000 2
21402 21403 21412 21413 1 180.0000771 15.1670000 2
21404 21403 21412 21410 1 180.0000771 15.1670000 2
21404 21403 21412 21413 1 180.0000771 15.1670000 2
21405 21404 21403 21412 1 180.0000771 15.1670000 2
21406 21404 21403 21412 1 180.0000771 15.1670000 2
21403 21404 21406 21407 1 180.0000771 15.1670000 2
21403 21404 21406 21408 1 180.0000771 15.1670000 2
21405 21404 21406 21407 1 180.0000771 15.1670000 2
21405 21404 21406 21408 1 180.0000771 15.1670000 2
21404 21406 21408 21409 1 180.0000771 15.1670000 2
21404 21406 21408 21410 1 180.0000771 15.1670000 2
21407 21406 21408 21409 1 180.0000771 15.1670000 2
21407 21406 21408 21410 1 180.0000771 15.1670000 2
21404 21408 21406 21407 4 180.0000771 4.6024000 2
21406 21408 21410 21411 1 180.0000771 15.1670000 2
21406 21408 21410 21412 1 180.0000771 15.1670000 2
21409 21408 21410 21411 1 180.0000771 15.1670000 2
21409 21408 21410 21412 1 180.0000771 15.1670000 2
21406 21410 21408 21409 4 180.0000771 4.6024000 2
21403 21410 21412 21413 4 180.0000771 4.6024000 2
21408 21410 21412 21413 1 180.0000771 15.1670000 2
21411 21410 21412 21413 1 180.0000771 15.1670000 2
21403 21412 21410 21408 1 180.0000771 15.1670000 2
21403 21412 21410 21411 1 180.0000771 15.1670000 2
21408 21412 21410 21411 4 180.0000771 4.6024000 2
21414 21415 21416 21417 1 180.0000771 15.1670000 2
21414 21415 21416 21418 1 180.0000771 15.1670000 2
21417 21415 21416 21418 4 180.0000771 4.6024000 2
21414 21415 21424 21416 4 180.0000771 4.6024000 2
21414 21415 21424 21422 1 180.0000771 15.1670000 2
21414 21415 21424 21425 1 180.0000771 15.1670000 2
21416 21415 21424 21422 1 180.0000771 15.1670000 2
21416 21415 21424 21425 1 180.0000771 15.1670000 2
21417 21416 21415 21424 1 180.0000771 15.1670000 2
21418 21416 21415 21424 1 180.0000771 15.1670000 2
21415 21416 21418 21419 1 180.0000771 15.1670000 2
21415 21416 21418 21420 1 180.0000771 15.1670000 2
21417 21416 21418 21419 1 180.0000771 15.1670000 2
21417 21416 21418 21420 1 180.0000771 15.1670000 2
21416 21418 21420 21421 1 180.0000771 15.1670000 2
21416 21418 21420 21422 1 180.0000771 15.1670000 2
21419 21418 21420 21421 1 180.0000771 15.1670000 2
21419 21418 21420 21422 1 180.0000771 15.1670000 2
21416 21420 21418 21419 4 180.0000771 4.6024000 2
21418 21420 21422 21423 1 180.0000771 15.1670000 2
21418 21420 21422 21424 1 180.0000771 15.1670000 2
21421 21420 21422 21423 1 180.0000771 15.1670000 2
21421 21420 21422 21424 1 180.0000771 15.1670000 2
21418 21422 21420 21421 4 180.0000771 4.6024000 2
21415 21422 21424 21425 4 180.0000771 4.6024000 2
21420 21422 21424 21425 1 180.0000771 15.1670000 2
21423 21422 21424 21425 1 180.0000771 15.1670000 2
21415 21424 21422 21420 1 180.0000771 15.1670000 2
21415 21424 21422 21423 1 180.0000771 15.1670000 2
21420 21424 21422 21423 4 180.0000771 4.6024000 2
21426 21427 21428 21429 1 180.0000771 15.1670000 2
21426 21427 21428 21430 1 180.0000771 15.1670000 2
21429 21427 21428 21430 4 180.0000771 4.6024000 2
21426 21427 21436 21428 4 180.0000771 4.6024000 2
21426 21427 21436 21434 1 180.0000771 15.1670000 2
21426 21427 21436 21437 1 180.0000771 15.1670000 2
21428 21427 21436 21434 1 180.0000771 15.1670000 2
21428 21427 21436 21437 1 180.0000771 15.1670000 2
21429 21428 21427 21436 1 180.0000771 15.1670000 2
21430 21428 21427 21436 1 180.0000771 15.1670000 2
21427 21428 21430 21431 1 180.0000771 15.1670000 2
21427 21428 21430 21432 1 180.0000771 15.1670000 2
21429 21428 21430 21431 1 180.0000771 15.1670000 2
21429 21428 21430 21432 1 180.0000771 15.1670000 2
21428 21430 21432 21433 1 180.0000771 15.1670000 2
21428 21430 21432 21434 1 180.0000771 15.1670000 2
21431 21430 21432 21433 1 180.0000771 15.1670000 2
21431 21430 21432 21434 1 180.0000771 15.1670000 2
21428 21432 21430 21431 4 180.0000771 4.6024000 2
21430 21432 21434 21435 1 180.0000771 15.1670000 2
21430 21432 21434 21436 1 180.0000771 15.1670000 2
21433 21432 21434 21435 1 180.0000771 15.1670000 2
21433 21432 21434 21436 1 180.0000771 15.1670000 2
21430 21434 21432 21433 4 180.0000771 4.6024000 2
21427 21434 21436 21437 4 180.0000771 4.6024000 2
21432 21434 21436 21437 1 180.0000771 15.1670000 2
21435 21434 21436 21437 1 180.0000771 15.1670000 2
21427 21436 21434 21432 1 180.0000771 15.1670000 2
21427 21436 21434 21435 1 180.0000771 15.1670000 2
21432 21436 21434 21435 4 180.0000771 4.6024000 2
21438 21439 21440 21441 1 180.0000771 15.1670000 2
21438 21439 21440 21442 1 180.0000771 15.1670000 2
21441 21439 21440 21442 4 180.0000771 4.6024000 2
21438 21439 21448 21440 4 180.0000771 4.6024000 2
21438 21439 21448 21446 1 180.0000771 15.1670000 2
21438 21439 21448 21449 1 180.0000771 15.1670000 2
21440 21439 21448 21446 1 180.0000771 15.1670000 2
21440 21439 21448 21449 1 180.0000771 15.1670000 2
21441 21440 21439 21448 1 180.0000771 15.1670000 2
21442 21440 21439 21448 1 180.0000771 15.1670000 2
21439 21440 21442 21443 1 180.0000771 15.1670000 2
21439 21440 21442 21444 1 180.0000771 15.1670000 2
21441 21440 21442 21443 1 180.0000771 15.1670000 2
21441 21440 21442 21444 1 180.0000771 15.1670000 2
21440 21442 21444 21445 1 180.0000771 15.1670000 2
21440 21442 21444 21446 1 180.0000771 15.1670000 2
21443 21442 21444 21445 1 180.0000771 15.1670000 2
21443 21442 21444 21446 1 180.0000771 15.1670000 2
21440 21444 21442 21443 4 180.0000771 4.6024000 2
21442 21444 21446 21447 1 180.0000771 15.1670000 2
21442 21444 21446 21448 1 180.0000771 15.1670000 2
21445 21444 21446 21447 1 180.0000771 15.1670000 2
21445 21444 21446 21448 1 180.0000771 15.1670000 2
21442 21446 21444 21445 4 180.0000771 4.6024000 2
21439 21446 21448 21449 4 180.0000771 4.6024000 2
21444 21446 21448 21449 1 180.0000771 15.1670000 2
21447 21446 21448 21449 1 180.0000771 15.1670000 2
21439 21448 21446 21444 1 180.0000771 15.1670000 2
21439 21448 21446 21447 1 180.0000771 15.1670000 2
21444 21448 21446 21447 4 180.0000771 4.6024000 2
21450 21451 21452 21453 1 180.0000771 15.1670000 2
21450 21451 21452 21454 1 180.0000771 15.1670000 2
21453 21451 21452 21454 4 180.0000771 4.6024000 2
21450 21451 21460 21452 4 180.0000771 4.6024000 2
21450 21451 21460 21458 1 180.0000771 15.1670000 2
21450 21451 21460 21461 1 180.0000771 15.1670000 2
21452 21451 21460 21458 1 180.0000771 15.1670000 2
21452 21451 21460 21461 1 180.0000771 15.1670000 2
21453 21452 21451 21460 1 180.0000771 15.1670000 2
21454 21452 21451 21460 1 180.0000771 15.1670000 2
21451 21452 21454 21455 1 180.0000771 15.1670000 2
21451 21452 21454 21456 1 180.0000771 15.1670000 2
21453 21452 21454 21455 1 180.0000771 15.1670000 2
21453 21452 21454 21456 1 180.0000771 15.1670000 2
21452 21454 21456 21457 1 180.0000771 15.1670000 2
21452 21454 21456 21458 1 180.0000771 15.1670000 2
21455 21454 21456 21457 1 180.0000771 15.1670000 2
21455 21454 21456 21458 1 180.0000771 15.1670000 2
21452 21456 21454 21455 4 180.0000771 4.6024000 2
21454 21456 21458 21459 1 180.0000771 15.1670000 2
21454 21456 21458 21460 1 180.0000771 15.1670000 2
21457 21456 21458 21459 1 180.0000771 15.1670000 2
21457 21456 21458 21460 1 180.0000771 15.1670000 2
21454 21458 21456 21457 4 180.0000771 4.6024000 2
21451 21458 21460 21461 4 180.0000771 4.6024000 2
21456 21458 21460 21461 1 180.0000771 15.1670000 2
21459 21458 21460 21461 1 180.0000771 15.1670000 2
21451 21460 21458 21456 1 180.0000771 15.1670000 2
21451 21460 21458 21459 1 180.0000771 15.1670000 2
21456 21460 21458 21459 4 180.0000771 4.6024000 2
21462 21463 21464 21465 1 180.0000771 15.1670000 2
21462 21463 21464 21466 1 180.0000771 15.1670000 2
21465 21463 21464 21466 4 180.0000771 4.6024000 2
21462 21463 21472 21464 4 180.0000771 4.6024000 2
21462 21463 21472 21470 1 180.0000771 15.1670000 2
21462 21463 21472 21473 1 180.0000771 15.1670000 2
21464 21463 21472 21470 1 180.0000771 15.1670000 2
21464 21463 21472 21473 1 180.0000771 15.1670000 2
21465 21464 21463 21472 1 180.0000771 15.1670000 2
21466 21464 21463 21472 1 180.0000771 15.1670000 2
21463 21464 21466 21467 1 180.0000771 15.1670000 2
21463 21464 21466 21468 1 180.0000771 15.1670000 2
21465 21464 21466 21467 1 180.0000771 15.1670000 2
21465 21464 21466 21468 1 180.0000771 15.1670000 2
21464 21466 21468 21469 1 180.0000771 15.1670000 2
21464 21466 21468 21470 1 180.0000771 15.1670000 2
21467 21466 21468 21469 1 180.0000771 15.1670000 2
21467 21466 21468 21470 1 180.0000771 15.1670000 2
21464 21468 21466 21467 4 180.0000771 4.6024000 2
21466 21468 21470 21471 1 180.0000771 15.1670000 2
21466 21468 21470 21472 1 180.0000771 15.1670000 2
21469 21468 21470 21471 1 180.0000771 15.1670000 2
21469 21468 21470 21472 1 180.0000771 15.1670000 2
21466 21470 21468 21469 4 180.0000771 4.6024000 2
21463 21470 21472 21473 4 180.0000771 4.6024000 2
21468 21470 21472 21473 1 180.0000771 15.1670000 2
21471 21470 21472 21473 1 180.0000771 15.1670000 2
21463 21472 21470 21468 1 180.0000771 15.1670000 2
21463 21472 21470 21471 1 180.0000771 15.1670000 2
21468 21472 21470 21471 4 180.0000771 4.6024000 2
21474 21475 21476 21477 1 180.0000771 15.1670000 2
21474 21475 21476 21478 1 180.0000771 15.1670000 2
21477 21475 21476 21478 4 180.0000771 4.6024000 2
21474 21475 21484 21476 4 180.0000771 4.6024000 2
21474 21475 21484 21482 1 180.0000771 15.1670000 2
21474 21475 21484 21485 1 180.0000771 15.1670000 2
21476 21475 21484 21482 1 180.0000771 15.1670000 2
21476 21475 21484 21485 1 180.0000771 15.1670000 2
21477 21476 21475 21484 1 180.0000771 15.1670000 2
21478 21476 21475 21484 1 180.0000771 15.1670000 2
21475 21476 21478 21479 1 180.0000771 15.1670000 2
21475 21476 21478 21480 1 180.0000771 15.1670000 2
21477 21476 21478 21479 1 180.0000771 15.1670000 2
21477 21476 21478 21480 1 180.0000771 15.1670000 2
21476 21478 21480 21481 1 180.0000771 15.1670000 2
21476 21478 21480 21482 1 180.0000771 15.1670000 2
21479 21478 21480 21481 1 180.0000771 15.1670000 2
21479 21478 21480 21482 1 180.0000771 15.1670000 2
21476 21480 21478 21479 4 180.0000771 4.6024000 2
21478 21480 21482 21483 1 180.0000771 15.1670000 2
21478 21480 21482 21484 1 180.0000771 15.1670000 2
21481 21480 21482 21483 1 180.0000771 15.1670000 2
21481 21480 21482 21484 1 180.0000771 15.1670000 2
21478 21482 21480 21481 4 180.0000771 4.6024000 2
21475 21482 21484 21485 4 180.0000771 4.6024000 2
21480 21482 21484 21485 1 180.0000771 15.1670000 2
21483 21482 21484 21485 1 180.0000771 15.1670000 2
21475 21484 21482 21480 1 180.0000771 15.1670000 2
21475 21484 21482 21483 1 180.0000771 15.1670000 2
21480 21484 21482 21483 4 180.0000771 4.6024000 2
21486 21487 21488 21489 1 180.0000771 15.1670000 2
21486 21487 21488 21490 1 180.0000771 15.1670000 2
21489 21487 21488 21490 4 180.0000771 4.6024000 2
21486 21487 21496 21488 4 180.0000771 4.6024000 2
21486 21487 21496 21494 1 180.0000771 15.1670000 2
21486 21487 21496 21497 1 180.0000771 15.1670000 2
21488 21487 21496 21494 1 180.0000771 15.1670000 2
21488 21487 21496 21497 1 180.0000771 15.1670000 2
21489 21488 21487 21496 1 180.0000771 15.1670000 2
21490 21488 21487 21496 1 180.0000771 15.1670000 2
21487 21488 21490 21491 1 180.0000771 15.1670000 2
21487 21488 21490 21492 1 180.0000771 15.1670000 2
21489 21488 21490 21491 1 180.0000771 15.1670000 2
21489 21488 21490 21492 1 180.0000771 15.1670000 2
21488 21490 21492 21493 1 180.0000771 15.1670000 2
21488 21490 21492 21494 1 180.0000771 15.1670000 2
21491 21490 21492 21493 1 180.0000771 15.1670000 2
21491 21490 21492 21494 1 180.0000771 15.1670000 2
21488 21492 21490 21491 4 180.0000771 4.6024000 2
21490 21492 21494 21495 1 180.0000771 15.1670000 2
21490 21492 21494 21496 1 180.0000771 15.1670000 2
21493 21492 21494 21495 1 180.0000771 15.1670000 2
21493 21492 21494 21496 1 180.0000771 15.1670000 2
21490 21494 21492 21493 4 180.0000771 4.6024000 2
21487 21494 21496 21497 4 180.0000771 4.6024000 2
21492 21494 21496 21497 1 180.0000771 15.1670000 2
21495 21494 21496 21497 1 180.0000771 15.1670000 2
21487 21496 21494 21492 1 180.0000771 15.1670000 2
21487 21496 21494 21495 1 180.0000771 15.1670000 2
21492 21496 21494 21495 4 180.0000771 4.6024000 2
21498 21499 21500 21501 1 180.0000771 15.1670000 2
21498 21499 21500 21502 1 180.0000771 15.1670000 2
21501 21499 21500 21502 4 180.0000771 4.6024000 2
21498 21499 21508 21500 4 180.0000771 4.6024000 2
21498 21499 21508 21506 1 180.0000771 15.1670000 2
21498 21499 21508 21509 1 180.0000771 15.1670000 2
21500 21499 21508 21506 1 180.0000771 15.1670000 2
21500 21499 21508 21509 1 180.0000771 15.1670000 2
21501 21500 21499 21508 1 180.0000771 15.1670000 2
21502 21500 21499 21508 1 180.0000771 15.1670000 2
21499 21500 21502 21503 1 180.0000771 15.1670000 2
21499 21500 21502 21504 1 180.0000771 15.1670000 2
21501 21500 21502 21503 1 180.0000771 15.1670000 2
21501 21500 21502 21504 1 180.0000771 15.1670000 2
21500 21502 21504 21505 1 180.0000771 15.1670000 2
21500 21502 21504 21506 1 180.0000771 15.1670000 2
21503 21502 21504 21505 1 180.0000771 15.1670000 2
21503 21502 21504 21506 1 180.0000771 15.1670000 2
21500 21504 21502 21503 4 180.0000771 4.6024000 2
21502 21504 21506 21507 1 180.0000771 15.1670000 2
21502 21504 21506 21508 1 180.0000771 15.1670000 2
21505 21504 21506 21507 1 180.0000771 15.1670000 2
21505 21504 21506 21508 1 180.0000771 15.1670000 2
21502 21506 21504 21505 4 180.0000771 4.6024000 2
21499 21506 21508 21509 4 180.0000771 4.6024000 2
21504 21506 21508 21509 1 180.0000771 15.1670000 2
21507 21506 21508 21509 1 180.0000771 15.1670000 2
21499 21508 21506 21504 1 180.0000771 15.1670000 2
21499 21508 21506 21507 1 180.0000771 15.1670000 2
21504 21508 21506 21507 4 180.0000771 4.6024000 2
21510 21511 21512 21513 1 180.0000771 15.1670000 2
21510 21511 21512 21514 1 180.0000771 15.1670000 2
21513 21511 21512 21514 4 180.0000771 4.6024000 2
21510 21511 21520 21512 4 180.0000771 4.6024000 2
21510 21511 21520 21518 1 180.0000771 15.1670000 2
21510 21511 21520 21521 1 180.0000771 15.1670000 2
21512 21511 21520 21518 1 180.0000771 15.1670000 2
21512 21511 21520 21521 1 180.0000771 15.1670000 2
21513 21512 21511 21520 1 180.0000771 15.1670000 2
21514 21512 21511 21520 1 180.0000771 15.1670000 2
21511 21512 21514 21515 1 180.0000771 15.1670000 2
21511 21512 21514 21516 1 180.0000771 15.1670000 2
21513 21512 21514 21515 1 180.0000771 15.1670000 2
21513 21512 21514 21516 1 180.0000771 15.1670000 2
21512 21514 21516 21517 1 180.0000771 15.1670000 2
21512 21514 21516 21518 1 180.0000771 15.1670000 2
21515 21514 21516 21517 1 180.0000771 15.1670000 2
21515 21514 21516 21518 1 180.0000771 15.1670000 2
21512 21516 21514 21515 4 180.0000771 4.6024000 2
21514 21516 21518 21519 1 180.0000771 15.1670000 2
21514 21516 21518 21520 1 180.0000771 15.1670000 2
21517 21516 21518 21519 1 180.0000771 15.1670000 2
21517 21516 21518 21520 1 180.0000771 15.1670000 2
21514 21518 21516 21517 4 180.0000771 4.6024000 2
21511 21518 21520 21521 4 180.0000771 4.6024000 2
21516 21518 21520 21521 1 180.0000771 15.1670000 2
21519 21518 21520 21521 1 180.0000771 15.1670000 2
21511 21520 21518 21516 1 180.0000771 15.1670000 2
21511 21520 21518 21519 1 180.0000771 15.1670000 2
21516 21520 21518 21519 4 180.0000771 4.6024000 2
21522 21523 21524 21525 1 180.0000771 15.1670000 2
21522 21523 21524 21526 1 180.0000771 15.1670000 2
21525 21523 21524 21526 4 180.0000771 4.6024000 2
21522 21523 21532 21524 4 180.0000771 4.6024000 2
21522 21523 21532 21530 1 180.0000771 15.1670000 2
21522 21523 21532 21533 1 180.0000771 15.1670000 2
21524 21523 21532 21530 1 180.0000771 15.1670000 2
21524 21523 21532 21533 1 180.0000771 15.1670000 2
21525 21524 21523 21532 1 180.0000771 15.1670000 2
21526 21524 21523 21532 1 180.0000771 15.1670000 2
21523 21524 21526 21527 1 180.0000771 15.1670000 2
21523 21524 21526 21528 1 180.0000771 15.1670000 2
21525 21524 21526 21527 1 180.0000771 15.1670000 2
21525 21524 21526 21528 1 180.0000771 15.1670000 2
21524 21526 21528 21529 1 180.0000771 15.1670000 2
21524 21526 21528 21530 1 180.0000771 15.1670000 2
21527 21526 21528 21529 1 180.0000771 15.1670000 2
21527 21526 21528 21530 1 180.0000771 15.1670000 2
21524 21528 21526 21527 4 180.0000771 4.6024000 2
21526 21528 21530 21531 1 180.0000771 15.1670000 2
21526 21528 21530 21532 1 180.0000771 15.1670000 2
21529 21528 21530 21531 1 180.0000771 15.1670000 2
21529 21528 21530 21532 1 180.0000771 15.1670000 2
21526 21530 21528 21529 4 180.0000771 4.6024000 2
21523 21530 21532 21533 4 180.0000771 4.6024000 2
21528 21530 21532 21533 1 180.0000771 15.1670000 2
21531 21530 21532 21533 1 180.0000771 15.1670000 2
21523 21532 21530 21528 1 180.0000771 15.1670000 2
21523 21532 21530 21531 1 180.0000771 15.1670000 2
21528 21532 21530 21531 4 180.0000771 4.6024000 2
21534 21535 21536 21537 1 180.0000771 15.1670000 2
21534 21535 21536 21538 1 180.0000771 15.1670000 2
21537 21535 21536 21538 4 180.0000771 4.6024000 2
21534 21535 21544 21536 4 180.0000771 4.6024000 2
21534 21535 21544 21542 1 180.0000771 15.1670000 2
21534 21535 21544 21545 1 180.0000771 15.1670000 2
21536 21535 21544 21542 1 180.0000771 15.1670000 2
21536 21535 21544 21545 1 180.0000771 15.1670000 2
21537 21536 21535 21544 1 180.0000771 15.1670000 2
21538 21536 21535 21544 1 180.0000771 15.1670000 2
21535 21536 21538 21539 1 180.0000771 15.1670000 2
21535 21536 21538 21540 1 180.0000771 15.1670000 2
21537 21536 21538 21539 1 180.0000771 15.1670000 2
21537 21536 21538 21540 1 180.0000771 15.1670000 2
21536 21538 21540 21541 1 180.0000771 15.1670000 2
21536 21538 21540 21542 1 180.0000771 15.1670000 2
21539 21538 21540 21541 1 180.0000771 15.1670000 2
21539 21538 21540 21542 1 180.0000771 15.1670000 2
21536 21540 21538 21539 4 180.0000771 4.6024000 2
21538 21540 21542 21543 1 180.0000771 15.1670000 2
21538 21540 21542 21544 1 180.0000771 15.1670000 2
21541 21540 21542 21543 1 180.0000771 15.1670000 2
21541 21540 21542 21544 1 180.0000771 15.1670000 2
21538 21542 21540 21541 4 180.0000771 4.6024000 2
21535 21542 21544 21545 4 180.0000771 4.6024000 2
21540 21542 21544 21545 1 180.0000771 15.1670000 2
21543 21542 21544 21545 1 180.0000771 15.1670000 2
21535 21544 21542 21540 1 180.0000771 15.1670000 2
21535 21544 21542 21543 1 180.0000771 15.1670000 2
21540 21544 21542 21543 4 180.0000771 4.6024000 2
21546 21547 21548 21549 1 180.0000771 15.1670000 2
21546 21547 21548 21550 1 180.0000771 15.1670000 2
21549 21547 21548 21550 4 180.0000771 4.6024000 2
21546 21547 21556 21548 4 180.0000771 4.6024000 2
21546 21547 21556 21554 1 180.0000771 15.1670000 2
21546 21547 21556 21557 1 180.0000771 15.1670000 2
21548 21547 21556 21554 1 180.0000771 15.1670000 2
21548 21547 21556 21557 1 180.0000771 15.1670000 2
21549 21548 21547 21556 1 180.0000771 15.1670000 2
21550 21548 21547 21556 1 180.0000771 15.1670000 2
21547 21548 21550 21551 1 180.0000771 15.1670000 2
21547 21548 21550 21552 1 180.0000771 15.1670000 2
21549 21548 21550 21551 1 180.0000771 15.1670000 2
21549 21548 21550 21552 1 180.0000771 15.1670000 2
21548 21550 21552 21553 1 180.0000771 15.1670000 2
21548 21550 21552 21554 1 180.0000771 15.1670000 2
21551 21550 21552 21553 1 180.0000771 15.1670000 2
21551 21550 21552 21554 1 180.0000771 15.1670000 2
21548 21552 21550 21551 4 180.0000771 4.6024000 2
21550 21552 21554 21555 1 180.0000771 15.1670000 2
21550 21552 21554 21556 1 180.0000771 15.1670000 2
21553 21552 21554 21555 1 180.0000771 15.1670000 2
21553 21552 21554 21556 1 180.0000771 15.1670000 2
21550 21554 21552 21553 4 180.0000771 4.6024000 2
21547 21554 21556 21557 4 180.0000771 4.6024000 2
21552 21554 21556 21557 1 180.0000771 15.1670000 2
21555 21554 21556 21557 1 180.0000771 15.1670000 2
21547 21556 21554 21552 1 180.0000771 15.1670000 2
21547 21556 21554 21555 1 180.0000771 15.1670000 2
21552 21556 21554 21555 4 180.0000771 4.6024000 2
21558 21559 21560 21561 1 180.0000771 15.1670000 2
21558 21559 21560 21562 1 180.0000771 15.1670000 2
21561 21559 21560 21562 4 180.0000771 4.6024000 2
21558 21559 21568 21560 4 180.0000771 4.6024000 2
21558 21559 21568 21566 1 180.0000771 15.1670000 2
21558 21559 21568 21569 1 180.0000771 15.1670000 2
21560 21559 21568 21566 1 180.0000771 15.1670000 2
21560 21559 21568 21569 1 180.0000771 15.1670000 2
21561 21560 21559 21568 1 180.0000771 15.1670000 2
21562 21560 21559 21568 1 180.0000771 15.1670000 2
21559 21560 21562 21563 1 180.0000771 15.1670000 2
21559 21560 21562 21564 1 180.0000771 15.1670000 2
21561 21560 21562 21563 1 180.0000771 15.1670000 2
21561 21560 21562 21564 1 180.0000771 15.1670000 2
21560 21562 21564 21565 1 180.0000771 15.1670000 2
21560 21562 21564 21566 1 180.0000771 15.1670000 2
21563 21562 21564 21565 1 180.0000771 15.1670000 2
21563 21562 21564 21566 1 180.0000771 15.1670000 2
21560 21564 21562 21563 4 180.0000771 4.6024000 2
21562 21564 21566 21567 1 180.0000771 15.1670000 2
21562 21564 21566 21568 1 180.0000771 15.1670000 2
21565 21564 21566 21567 1 180.0000771 15.1670000 2
21565 21564 21566 21568 1 180.0000771 15.1670000 2
21562 21566 21564 21565 4 180.0000771 4.6024000 2
21559 21566 21568 21569 4 180.0000771 4.6024000 2
21564 21566 21568 21569 1 180.0000771 15.1670000 2
21567 21566 21568 21569 1 180.0000771 15.1670000 2
21559 21568 21566 21564 1 180.0000771 15.1670000 2
21559 21568 21566 21567 1 180.0000771 15.1670000 2
21564 21568 21566 21567 4 180.0000771 4.6024000 2
21570 21571 21572 21573 1 180.0000771 15.1670000 2
21570 21571 21572 21574 1 180.0000771 15.1670000 2
21573 21571 21572 21574 4 180.0000771 4.6024000 2
21570 21571 21580 21572 4 180.0000771 4.6024000 2
21570 21571 21580 21578 1 180.0000771 15.1670000 2
21570 21571 21580 21581 1 180.0000771 15.1670000 2
21572 21571 21580 21578 1 180.0000771 15.1670000 2
21572 21571 21580 21581 1 180.0000771 15.1670000 2
21573 21572 21571 21580 1 180.0000771 15.1670000 2
21574 21572 21571 21580 1 180.0000771 15.1670000 2
21571 21572 21574 21575 1 180.0000771 15.1670000 2
21571 21572 21574 21576 1 180.0000771 15.1670000 2
21573 21572 21574 21575 1 180.0000771 15.1670000 2
21573 21572 21574 21576 1 180.0000771 15.1670000 2
21572 21574 21576 21577 1 180.0000771 15.1670000 2
21572 21574 21576 21578 1 180.0000771 15.1670000 2
21575 21574 21576 21577 1 180.0000771 15.1670000 2
21575 21574 21576 21578 1 180.0000771 15.1670000 2
21572 21576 21574 21575 4 180.0000771 4.6024000 2
21574 21576 21578 21579 1 180.0000771 15.1670000 2
21574 21576 21578 21580 1 180.0000771 15.1670000 2
21577 21576 21578 21579 1 180.0000771 15.1670000 2
21577 21576 21578 21580 1 180.0000771 15.1670000 2
21574 21578 21576 21577 4 180.0000771 4.6024000 2
21571 21578 21580 21581 4 180.0000771 4.6024000 2
21576 21578 21580 21581 1 180.0000771 15.1670000 2
21579 21578 21580 21581 1 180.0000771 15.1670000 2
21571 21580 21578 21576 1 180.0000771 15.1670000 2
21571 21580 21578 21579 1 180.0000771 15.1670000 2
21576 21580 21578 21579 4 180.0000771 4.6024000 2
21582 21583 21584 21585 1 180.0000771 15.1670000 2
21582 21583 21584 21586 1 180.0000771 15.1670000 2
21585 21583 21584 21586 4 180.0000771 4.6024000 2
21582 21583 21592 21584 4 180.0000771 4.6024000 2
21582 21583 21592 21590 1 180.0000771 15.1670000 2
21582 21583 21592 21593 1 180.0000771 15.1670000 2
21584 21583 21592 21590 1 180.0000771 15.1670000 2
21584 21583 21592 21593 1 180.0000771 15.1670000 2
21585 21584 21583 21592 1 180.0000771 15.1670000 2
21586 21584 21583 21592 1 180.0000771 15.1670000 2
21583 21584 21586 21587 1 180.0000771 15.1670000 2
21583 21584 21586 21588 1 180.0000771 15.1670000 2
21585 21584 21586 21587 1 180.0000771 15.1670000 2
21585 21584 21586 21588 1 180.0000771 15.1670000 2
21584 21586 21588 21589 1 180.0000771 15.1670000 2
21584 21586 21588 21590 1 180.0000771 15.1670000 2
21587 21586 21588 21589 1 180.0000771 15.1670000 2
21587 21586 21588 21590 1 180.0000771 15.1670000 2
21584 21588 21586 21587 4 180.0000771 4.6024000 2
21586 21588 21590 21591 1 180.0000771 15.1670000 2
21586 21588 21590 21592 1 180.0000771 15.1670000 2
21589 21588 21590 21591 1 180.0000771 15.1670000 2
21589 21588 21590 21592 1 180.0000771 15.1670000 2
21586 21590 21588 21589 4 180.0000771 4.6024000 2
21583 21590 21592 21593 4 180.0000771 4.6024000 2
21588 21590 21592 21593 1 180.0000771 15.1670000 2
21591 21590 21592 21593 1 180.0000771 15.1670000 2
21583 21592 21590 21588 1 180.0000771 15.1670000 2
21583 21592 21590 21591 1 180.0000771 15.1670000 2
21588 21592 21590 21591 4 180.0000771 4.6024000 2
21594 21595 21596 21597 1 180.0000771 15.1670000 2
21594 21595 21596 21598 1 180.0000771 15.1670000 2
21597 21595 21596 21598 4 180.0000771 4.6024000 2
21594 21595 21604 21596 4 180.0000771 4.6024000 2
21594 21595 21604 21602 1 180.0000771 15.1670000 2
21594 21595 21604 21605 1 180.0000771 15.1670000 2
21596 21595 21604 21602 1 180.0000771 15.1670000 2
21596 21595 21604 21605 1 180.0000771 15.1670000 2
21597 21596 21595 21604 1 180.0000771 15.1670000 2
21598 21596 21595 21604 1 180.0000771 15.1670000 2
21595 21596 21598 21599 1 180.0000771 15.1670000 2
21595 21596 21598 21600 1 180.0000771 15.1670000 2
21597 21596 21598 21599 1 180.0000771 15.1670000 2
21597 21596 21598 21600 1 180.0000771 15.1670000 2
21596 21598 21600 21601 1 180.0000771 15.1670000 2
21596 21598 21600 21602 1 180.0000771 15.1670000 2
21599 21598 21600 21601 1 180.0000771 15.1670000 2
21599 21598 21600 21602 1 180.0000771 15.1670000 2
21596 21600 21598 21599 4 180.0000771 4.6024000 2
21598 21600 21602 21603 1 180.0000771 15.1670000 2
21598 21600 21602 21604 1 180.0000771 15.1670000 2
21601 21600 21602 21603 1 180.0000771 15.1670000 2
21601 21600 21602 21604 1 180.0000771 15.1670000 2
21598 21602 21600 21601 4 180.0000771 4.6024000 2
21595 21602 21604 21605 4 180.0000771 4.6024000 2
21600 21602 21604 21605 1 180.0000771 15.1670000 2
21603 21602 21604 21605 1 180.0000771 15.1670000 2
21595 21604 21602 21600 1 180.0000771 15.1670000 2
21595 21604 21602 21603 1 180.0000771 15.1670000 2
21600 21604 21602 21603 4 180.0000771 4.6024000 2
21606 21607 21608 21609 1 180.0000771 15.1670000 2
21606 21607 21608 21610 1 180.0000771 15.1670000 2
21609 21607 21608 21610 4 180.0000771 4.6024000 2
21606 21607 21616 21608 4 180.0000771 4.6024000 2
21606 21607 21616 21614 1 180.0000771 15.1670000 2
21606 21607 21616 21617 1 180.0000771 15.1670000 2
21608 21607 21616 21614 1 180.0000771 15.1670000 2
21608 21607 21616 21617 1 180.0000771 15.1670000 2
21609 21608 21607 21616 1 180.0000771 15.1670000 2
21610 21608 21607 21616 1 180.0000771 15.1670000 2
21607 21608 21610 21611 1 180.0000771 15.1670000 2
21607 21608 21610 21612 1 180.0000771 15.1670000 2
21609 21608 21610 21611 1 180.0000771 15.1670000 2
21609 21608 21610 21612 1 180.0000771 15.1670000 2
21608 21610 21612 21613 1 180.0000771 15.1670000 2
21608 21610 21612 21614 1 180.0000771 15.1670000 2
21611 21610 21612 21613 1 180.0000771 15.1670000 2
21611 21610 21612 21614 1 180.0000771 15.1670000 2
21608 21612 21610 21611 4 180.0000771 4.6024000 2
21610 21612 21614 21615 1 180.0000771 15.1670000 2
21610 21612 21614 21616 1 180.0000771 15.1670000 2
21613 21612 21614 21615 1 180.0000771 15.1670000 2
21613 21612 21614 21616 1 180.0000771 15.1670000 2
21610 21614 21612 21613 4 180.0000771 4.6024000 2
21607 21614 21616 21617 4 180.0000771 4.6024000 2
21612 21614 21616 21617 1 180.0000771 15.1670000 2
21615 21614 21616 21617 1 180.0000771 15.1670000 2
21607 21616 21614 21612 1 180.0000771 15.1670000 2
21607 21616 21614 21615 1 180.0000771 15.1670000 2
21612 21616 21614 21615 4 180.0000771 4.6024000 2
21618 21619 21620 21621 1 180.0000771 15.1670000 2
21618 21619 21620 21622 1 180.0000771 15.1670000 2
21621 21619 21620 21622 4 180.0000771 4.6024000 2
21618 21619 21628 21620 4 180.0000771 4.6024000 2
21618 21619 21628 21626 1 180.0000771 15.1670000 2
21618 21619 21628 21629 1 180.0000771 15.1670000 2
21620 21619 21628 21626 1 180.0000771 15.1670000 2
21620 21619 21628 21629 1 180.0000771 15.1670000 2
21621 21620 21619 21628 1 180.0000771 15.1670000 2
21622 21620 21619 21628 1 180.0000771 15.1670000 2
21619 21620 21622 21623 1 180.0000771 15.1670000 2
21619 21620 21622 21624 1 180.0000771 15.1670000 2
21621 21620 21622 21623 1 180.0000771 15.1670000 2
21621 21620 21622 21624 1 180.0000771 15.1670000 2
21620 21622 21624 21625 1 180.0000771 15.1670000 2
21620 21622 21624 21626 1 180.0000771 15.1670000 2
21623 21622 21624 21625 1 180.0000771 15.1670000 2
21623 21622 21624 21626 1 180.0000771 15.1670000 2
21620 21624 21622 21623 4 180.0000771 4.6024000 2
21622 21624 21626 21627 1 180.0000771 15.1670000 2
21622 21624 21626 21628 1 180.0000771 15.1670000 2
21625 21624 21626 21627 1 180.0000771 15.1670000 2
21625 21624 21626 21628 1 180.0000771 15.1670000 2
21622 21626 21624 21625 4 180.0000771 4.6024000 2
21619 21626 21628 21629 4 180.0000771 4.6024000 2
21624 21626 21628 21629 1 180.0000771 15.1670000 2
21627 21626 21628 21629 1 180.0000771 15.1670000 2
21619 21628 21626 21624 1 180.0000771 15.1670000 2
21619 21628 21626 21627 1 180.0000771 15.1670000 2
21624 21628 21626 21627 4 180.0000771 4.6024000 2
21630 21631 21632 21633 1 180.0000771 15.1670000 2
21630 21631 21632 21634 1 180.0000771 15.1670000 2
21633 21631 21632 21634 4 180.0000771 4.6024000 2
21630 21631 21640 21632 4 180.0000771 4.6024000 2
21630 21631 21640 21638 1 180.0000771 15.1670000 2
21630 21631 21640 21641 1 180.0000771 15.1670000 2
21632 21631 21640 21638 1 180.0000771 15.1670000 2
21632 21631 21640 21641 1 180.0000771 15.1670000 2
21633 21632 21631 21640 1 180.0000771 15.1670000 2
21634 21632 21631 21640 1 180.0000771 15.1670000 2
21631 21632 21634 21635 1 180.0000771 15.1670000 2
21631 21632 21634 21636 1 180.0000771 15.1670000 2
21633 21632 21634 21635 1 180.0000771 15.1670000 2
21633 21632 21634 21636 1 180.0000771 15.1670000 2
21632 21634 21636 21637 1 180.0000771 15.1670000 2
21632 21634 21636 21638 1 180.0000771 15.1670000 2
21635 21634 21636 21637 1 180.0000771 15.1670000 2
21635 21634 21636 21638 1 180.0000771 15.1670000 2
21632 21636 21634 21635 4 180.0000771 4.6024000 2
21634 21636 21638 21639 1 180.0000771 15.1670000 2
21634 21636 21638 21640 1 180.0000771 15.1670000 2
21637 21636 21638 21639 1 180.0000771 15.1670000 2
21637 21636 21638 21640 1 180.0000771 15.1670000 2
21634 21638 21636 21637 4 180.0000771 4.6024000 2
21631 21638 21640 21641 4 180.0000771 4.6024000 2
21636 21638 21640 21641 1 180.0000771 15.1670000 2
21639 21638 21640 21641 1 180.0000771 15.1670000 2
21631 21640 21638 21636 1 180.0000771 15.1670000 2
21631 21640 21638 21639 1 180.0000771 15.1670000 2
21636 21640 21638 21639 4 180.0000771 4.6024000 2
21642 21643 21644 21645 1 180.0000771 15.1670000 2
21642 21643 21644 21646 1 180.0000771 15.1670000 2
21645 21643 21644 21646 4 180.0000771 4.6024000 2
21642 21643 21652 21644 4 180.0000771 4.6024000 2
21642 21643 21652 21650 1 180.0000771 15.1670000 2
21642 21643 21652 21653 1 180.0000771 15.1670000 2
21644 21643 21652 21650 1 180.0000771 15.1670000 2
21644 21643 21652 21653 1 180.0000771 15.1670000 2
21645 21644 21643 21652 1 180.0000771 15.1670000 2
21646 21644 21643 21652 1 180.0000771 15.1670000 2
21643 21644 21646 21647 1 180.0000771 15.1670000 2
21643 21644 21646 21648 1 180.0000771 15.1670000 2
21645 21644 21646 21647 1 180.0000771 15.1670000 2
21645 21644 21646 21648 1 180.0000771 15.1670000 2
21644 21646 21648 21649 1 180.0000771 15.1670000 2
21644 21646 21648 21650 1 180.0000771 15.1670000 2
21647 21646 21648 21649 1 180.0000771 15.1670000 2
21647 21646 21648 21650 1 180.0000771 15.1670000 2
21644 21648 21646 21647 4 180.0000771 4.6024000 2
21646 21648 21650 21651 1 180.0000771 15.1670000 2
21646 21648 21650 21652 1 180.0000771 15.1670000 2
21649 21648 21650 21651 1 180.0000771 15.1670000 2
21649 21648 21650 21652 1 180.0000771 15.1670000 2
21646 21650 21648 21649 4 180.0000771 4.6024000 2
21643 21650 21652 21653 4 180.0000771 4.6024000 2
21648 21650 21652 21653 1 180.0000771 15.1670000 2
21651 21650 21652 21653 1 180.0000771 15.1670000 2
21643 21652 21650 21648 1 180.0000771 15.1670000 2
21643 21652 21650 21651 1 180.0000771 15.1670000 2
21648 21652 21650 21651 4 180.0000771 4.6024000 2
21654 21655 21656 21657 1 180.0000771 15.1670000 2
21654 21655 21656 21658 1 180.0000771 15.1670000 2
21657 21655 21656 21658 4 180.0000771 4.6024000 2
21654 21655 21664 21656 4 180.0000771 4.6024000 2
21654 21655 21664 21662 1 180.0000771 15.1670000 2
21654 21655 21664 21665 1 180.0000771 15.1670000 2
21656 21655 21664 21662 1 180.0000771 15.1670000 2
21656 21655 21664 21665 1 180.0000771 15.1670000 2
21657 21656 21655 21664 1 180.0000771 15.1670000 2
21658 21656 21655 21664 1 180.0000771 15.1670000 2
21655 21656 21658 21659 1 180.0000771 15.1670000 2
21655 21656 21658 21660 1 180.0000771 15.1670000 2
21657 21656 21658 21659 1 180.0000771 15.1670000 2
21657 21656 21658 21660 1 180.0000771 15.1670000 2
21656 21658 21660 21661 1 180.0000771 15.1670000 2
21656 21658 21660 21662 1 180.0000771 15.1670000 2
21659 21658 21660 21661 1 180.0000771 15.1670000 2
21659 21658 21660 21662 1 180.0000771 15.1670000 2
21656 21660 21658 21659 4 180.0000771 4.6024000 2
21658 21660 21662 21663 1 180.0000771 15.1670000 2
21658 21660 21662 21664 1 180.0000771 15.1670000 2
21661 21660 21662 21663 1 180.0000771 15.1670000 2
21661 21660 21662 21664 1 180.0000771 15.1670000 2
21658 21662 21660 21661 4 180.0000771 4.6024000 2
21655 21662 21664 21665 4 180.0000771 4.6024000 2
21660 21662 21664 21665 1 180.0000771 15.1670000 2
21663 21662 21664 21665 1 180.0000771 15.1670000 2
21655 21664 21662 21660 1 180.0000771 15.1670000 2
21655 21664 21662 21663 1 180.0000771 15.1670000 2
21660 21664 21662 21663 4 180.0000771 4.6024000 2
21666 21667 21668 21669 1 180.0000771 15.1670000 2
21666 21667 21668 21670 1 180.0000771 15.1670000 2
21669 21667 21668 21670 4 180.0000771 4.6024000 2
21666 21667 21676 21668 4 180.0000771 4.6024000 2
21666 21667 21676 21674 1 180.0000771 15.1670000 2
21666 21667 21676 21677 1 180.0000771 15.1670000 2
21668 21667 21676 21674 1 180.0000771 15.1670000 2
21668 21667 21676 21677 1 180.0000771 15.1670000 2
21669 21668 21667 21676 1 180.0000771 15.1670000 2
21670 21668 21667 21676 1 180.0000771 15.1670000 2
21667 21668 21670 21671 1 180.0000771 15.1670000 2
21667 21668 21670 21672 1 180.0000771 15.1670000 2
21669 21668 21670 21671 1 180.0000771 15.1670000 2
21669 21668 21670 21672 1 180.0000771 15.1670000 2
21668 21670 21672 21673 1 180.0000771 15.1670000 2
21668 21670 21672 21674 1 180.0000771 15.1670000 2
21671 21670 21672 21673 1 180.0000771 15.1670000 2
21671 21670 21672 21674 1 180.0000771 15.1670000 2
21668 21672 21670 21671 4 180.0000771 4.6024000 2
21670 21672 21674 21675 1 180.0000771 15.1670000 2
21670 21672 21674 21676 1 180.0000771 15.1670000 2
21673 21672 21674 21675 1 180.0000771 15.1670000 2
21673 21672 21674 21676 1 180.0000771 15.1670000 2
21670 21674 21672 21673 4 180.0000771 4.6024000 2
21667 21674 21676 21677 4 180.0000771 4.6024000 2
21672 21674 21676 21677 1 180.0000771 15.1670000 2
21675 21674 21676 21677 1 180.0000771 15.1670000 2
21667 21676 21674 21672 1 180.0000771 15.1670000 2
21667 21676 21674 21675 1 180.0000771 15.1670000 2
21672 21676 21674 21675 4 180.0000771 4.6024000 2
21678 21679 21680 21681 1 180.0000771 15.1670000 2
21678 21679 21680 21682 1 180.0000771 15.1670000 2
21681 21679 21680 21682 4 180.0000771 4.6024000 2
21678 21679 21688 21680 4 180.0000771 4.6024000 2
21678 21679 21688 21686 1 180.0000771 15.1670000 2
21678 21679 21688 21689 1 180.0000771 15.1670000 2
21680 21679 21688 21686 1 180.0000771 15.1670000 2
21680 21679 21688 21689 1 180.0000771 15.1670000 2
21681 21680 21679 21688 1 180.0000771 15.1670000 2
21682 21680 21679 21688 1 180.0000771 15.1670000 2
21679 21680 21682 21683 1 180.0000771 15.1670000 2
21679 21680 21682 21684 1 180.0000771 15.1670000 2
21681 21680 21682 21683 1 180.0000771 15.1670000 2
21681 21680 21682 21684 1 180.0000771 15.1670000 2
21680 21682 21684 21685 1 180.0000771 15.1670000 2
21680 21682 21684 21686 1 180.0000771 15.1670000 2
21683 21682 21684 21685 1 180.0000771 15.1670000 2
21683 21682 21684 21686 1 180.0000771 15.1670000 2
21680 21684 21682 21683 4 180.0000771 4.6024000 2
21682 21684 21686 21687 1 180.0000771 15.1670000 2
21682 21684 21686 21688 1 180.0000771 15.1670000 2
21685 21684 21686 21687 1 180.0000771 15.1670000 2
21685 21684 21686 21688 1 180.0000771 15.1670000 2
21682 21686 21684 21685 4 180.0000771 4.6024000 2
21679 21686 21688 21689 4 180.0000771 4.6024000 2
21684 21686 21688 21689 1 180.0000771 15.1670000 2
21687 21686 21688 21689 1 180.0000771 15.1670000 2
21679 21688 21686 21684 1 180.0000771 15.1670000 2
21679 21688 21686 21687 1 180.0000771 15.1670000 2
21684 21688 21686 21687 4 180.0000771 4.6024000 2
21690 21691 21692 21693 1 180.0000771 15.1670000 2
21690 21691 21692 21694 1 180.0000771 15.1670000 2
21693 21691 21692 21694 4 180.0000771 4.6024000 2
21690 21691 21700 21692 4 180.0000771 4.6024000 2
21690 21691 21700 21698 1 180.0000771 15.1670000 2
21690 21691 21700 21701 1 180.0000771 15.1670000 2
21692 21691 21700 21698 1 180.0000771 15.1670000 2
21692 21691 21700 21701 1 180.0000771 15.1670000 2
21693 21692 21691 21700 1 180.0000771 15.1670000 2
21694 21692 21691 21700 1 180.0000771 15.1670000 2
21691 21692 21694 21695 1 180.0000771 15.1670000 2
21691 21692 21694 21696 1 180.0000771 15.1670000 2
21693 21692 21694 21695 1 180.0000771 15.1670000 2
21693 21692 21694 21696 1 180.0000771 15.1670000 2
21692 21694 21696 21697 1 180.0000771 15.1670000 2
21692 21694 21696 21698 1 180.0000771 15.1670000 2
21695 21694 21696 21697 1 180.0000771 15.1670000 2
21695 21694 21696 21698 1 180.0000771 15.1670000 2
21692 21696 21694 21695 4 180.0000771 4.6024000 2
21694 21696 21698 21699 1 180.0000771 15.1670000 2
21694 21696 21698 21700 1 180.0000771 15.1670000 2
21697 21696 21698 21699 1 180.0000771 15.1670000 2
21697 21696 21698 21700 1 180.0000771 15.1670000 2
21694 21698 21696 21697 4 180.0000771 4.6024000 2
21691 21698 21700 21701 4 180.0000771 4.6024000 2
21696 21698 21700 21701 1 180.0000771 15.1670000 2
21699 21698 21700 21701 1 180.0000771 15.1670000 2
21691 21700 21698 21696 1 180.0000771 15.1670000 2
21691 21700 21698 21699 1 180.0000771 15.1670000 2
21696 21700 21698 21699 4 180.0000771 4.6024000 2
21702 21703 21704 21705 1 180.0000771 15.1670000 2
21702 21703 21704 21706 1 180.0000771 15.1670000 2
21705 21703 21704 21706 4 180.0000771 4.6024000 2
21702 21703 21712 21704 4 180.0000771 4.6024000 2
21702 21703 21712 21710 1 180.0000771 15.1670000 2
21702 21703 21712 21713 1 180.0000771 15.1670000 2
21704 21703 21712 21710 1 180.0000771 15.1670000 2
21704 21703 21712 21713 1 180.0000771 15.1670000 2
21705 21704 21703 21712 1 180.0000771 15.1670000 2
21706 21704 21703 21712 1 180.0000771 15.1670000 2
21703 21704 21706 21707 1 180.0000771 15.1670000 2
21703 21704 21706 21708 1 180.0000771 15.1670000 2
21705 21704 21706 21707 1 180.0000771 15.1670000 2
21705 21704 21706 21708 1 180.0000771 15.1670000 2
21704 21706 21708 21709 1 180.0000771 15.1670000 2
21704 21706 21708 21710 1 180.0000771 15.1670000 2
21707 21706 21708 21709 1 180.0000771 15.1670000 2
21707 21706 21708 21710 1 180.0000771 15.1670000 2
21704 21708 21706 21707 4 180.0000771 4.6024000 2
21706 21708 21710 21711 1 180.0000771 15.1670000 2
21706 21708 21710 21712 1 180.0000771 15.1670000 2
21709 21708 21710 21711 1 180.0000771 15.1670000 2
21709 21708 21710 21712 1 180.0000771 15.1670000 2
21706 21710 21708 21709 4 180.0000771 4.6024000 2
21703 21710 21712 21713 4 180.0000771 4.6024000 2
21708 21710 21712 21713 1 180.0000771 15.1670000 2
21711 21710 21712 21713 1 180.0000771 15.1670000 2
21703 21712 21710 21708 1 180.0000771 15.1670000 2
21703 21712 21710 21711 1 180.0000771 15.1670000 2
21708 21712 21710 21711 4 180.0000771 4.6024000 2
21714 21715 21716 21717 1 180.0000771 15.1670000 2
21714 21715 21716 21718 1 180.0000771 15.1670000 2
21717 21715 21716 21718 4 180.0000771 4.6024000 2
21714 21715 21724 21716 4 180.0000771 4.6024000 2
21714 21715 21724 21722 1 180.0000771 15.1670000 2
21714 21715 21724 21725 1 180.0000771 15.1670000 2
21716 21715 21724 21722 1 180.0000771 15.1670000 2
21716 21715 21724 21725 1 180.0000771 15.1670000 2
21717 21716 21715 21724 1 180.0000771 15.1670000 2
21718 21716 21715 21724 1 180.0000771 15.1670000 2
21715 21716 21718 21719 1 180.0000771 15.1670000 2
21715 21716 21718 21720 1 180.0000771 15.1670000 2
21717 21716 21718 21719 1 180.0000771 15.1670000 2
21717 21716 21718 21720 1 180.0000771 15.1670000 2
21716 21718 21720 21721 1 180.0000771 15.1670000 2
21716 21718 21720 21722 1 180.0000771 15.1670000 2
21719 21718 21720 21721 1 180.0000771 15.1670000 2
21719 21718 21720 21722 1 180.0000771 15.1670000 2
21716 21720 21718 21719 4 180.0000771 4.6024000 2
21718 21720 21722 21723 1 180.0000771 15.1670000 2
21718 21720 21722 21724 1 180.0000771 15.1670000 2
21721 21720 21722 21723 1 180.0000771 15.1670000 2
21721 21720 21722 21724 1 180.0000771 15.1670000 2
21718 21722 21720 21721 4 180.0000771 4.6024000 2
21715 21722 21724 21725 4 180.0000771 4.6024000 2
21720 21722 21724 21725 1 180.0000771 15.1670000 2
21723 21722 21724 21725 1 180.0000771 15.1670000 2
21715 21724 21722 21720 1 180.0000771 15.1670000 2
21715 21724 21722 21723 1 180.0000771 15.1670000 2
21720 21724 21722 21723 4 180.0000771 4.6024000 2
21726 21727 21728 21729 1 180.0000771 15.1670000 2
21726 21727 21728 21730 1 180.0000771 15.1670000 2
21729 21727 21728 21730 4 180.0000771 4.6024000 2
21726 21727 21736 21728 4 180.0000771 4.6024000 2
21726 21727 21736 21734 1 180.0000771 15.1670000 2
21726 21727 21736 21737 1 180.0000771 15.1670000 2
21728 21727 21736 21734 1 180.0000771 15.1670000 2
21728 21727 21736 21737 1 180.0000771 15.1670000 2
21729 21728 21727 21736 1 180.0000771 15.1670000 2
21730 21728 21727 21736 1 180.0000771 15.1670000 2
21727 21728 21730 21731 1 180.0000771 15.1670000 2
21727 21728 21730 21732 1 180.0000771 15.1670000 2
21729 21728 21730 21731 1 180.0000771 15.1670000 2
21729 21728 21730 21732 1 180.0000771 15.1670000 2
21728 21730 21732 21733 1 180.0000771 15.1670000 2
21728 21730 21732 21734 1 180.0000771 15.1670000 2
21731 21730 21732 21733 1 180.0000771 15.1670000 2
21731 21730 21732 21734 1 180.0000771 15.1670000 2
21728 21732 21730 21731 4 180.0000771 4.6024000 2
21730 21732 21734 21735 1 180.0000771 15.1670000 2
21730 21732 21734 21736 1 180.0000771 15.1670000 2
21733 21732 21734 21735 1 180.0000771 15.1670000 2
21733 21732 21734 21736 1 180.0000771 15.1670000 2
21730 21734 21732 21733 4 180.0000771 4.6024000 2
21727 21734 21736 21737 4 180.0000771 4.6024000 2
21732 21734 21736 21737 1 180.0000771 15.1670000 2
21735 21734 21736 21737 1 180.0000771 15.1670000 2
21727 21736 21734 21732 1 180.0000771 15.1670000 2
21727 21736 21734 21735 1 180.0000771 15.1670000 2
21732 21736 21734 21735 4 180.0000771 4.6024000 2
21738 21739 21740 21741 1 180.0000771 15.1670000 2
21738 21739 21740 21742 1 180.0000771 15.1670000 2
21741 21739 21740 21742 4 180.0000771 4.6024000 2
21738 21739 21748 21740 4 180.0000771 4.6024000 2
21738 21739 21748 21746 1 180.0000771 15.1670000 2
21738 21739 21748 21749 1 180.0000771 15.1670000 2
21740 21739 21748 21746 1 180.0000771 15.1670000 2
21740 21739 21748 21749 1 180.0000771 15.1670000 2
21741 21740 21739 21748 1 180.0000771 15.1670000 2
21742 21740 21739 21748 1 180.0000771 15.1670000 2
21739 21740 21742 21743 1 180.0000771 15.1670000 2
21739 21740 21742 21744 1 180.0000771 15.1670000 2
21741 21740 21742 21743 1 180.0000771 15.1670000 2
21741 21740 21742 21744 1 180.0000771 15.1670000 2
21740 21742 21744 21745 1 180.0000771 15.1670000 2
21740 21742 21744 21746 1 180.0000771 15.1670000 2
21743 21742 21744 21745 1 180.0000771 15.1670000 2
21743 21742 21744 21746 1 180.0000771 15.1670000 2
21740 21744 21742 21743 4 180.0000771 4.6024000 2
21742 21744 21746 21747 1 180.0000771 15.1670000 2
21742 21744 21746 21748 1 180.0000771 15.1670000 2
21745 21744 21746 21747 1 180.0000771 15.1670000 2
21745 21744 21746 21748 1 180.0000771 15.1670000 2
21742 21746 21744 21745 4 180.0000771 4.6024000 2
21739 21746 21748 21749 4 180.0000771 4.6024000 2
21744 21746 21748 21749 1 180.0000771 15.1670000 2
21747 21746 21748 21749 1 180.0000771 15.1670000 2
21739 21748 21746 21744 1 180.0000771 15.1670000 2
21739 21748 21746 21747 1 180.0000771 15.1670000 2
21744 21748 21746 21747 4 180.0000771 4.6024000 2
21750 21751 21752 21753 1 180.0000771 15.1670000 2
21750 21751 21752 21754 1 180.0000771 15.1670000 2
21753 21751 21752 21754 4 180.0000771 4.6024000 2
21750 21751 21760 21752 4 180.0000771 4.6024000 2
21750 21751 21760 21758 1 180.0000771 15.1670000 2
21750 21751 21760 21761 1 180.0000771 15.1670000 2
21752 21751 21760 21758 1 180.0000771 15.1670000 2
21752 21751 21760 21761 1 180.0000771 15.1670000 2
21753 21752 21751 21760 1 180.0000771 15.1670000 2
21754 21752 21751 21760 1 180.0000771 15.1670000 2
21751 21752 21754 21755 1 180.0000771 15.1670000 2
21751 21752 21754 21756 1 180.0000771 15.1670000 2
21753 21752 21754 21755 1 180.0000771 15.1670000 2
21753 21752 21754 21756 1 180.0000771 15.1670000 2
21752 21754 21756 21757 1 180.0000771 15.1670000 2
21752 21754 21756 21758 1 180.0000771 15.1670000 2
21755 21754 21756 21757 1 180.0000771 15.1670000 2
21755 21754 21756 21758 1 180.0000771 15.1670000 2
21752 21756 21754 21755 4 180.0000771 4.6024000 2
21754 21756 21758 21759 1 180.0000771 15.1670000 2
21754 21756 21758 21760 1 180.0000771 15.1670000 2
21757 21756 21758 21759 1 180.0000771 15.1670000 2
21757 21756 21758 21760 1 180.0000771 15.1670000 2
21754 21758 21756 21757 4 180.0000771 4.6024000 2
21751 21758 21760 21761 4 180.0000771 4.6024000 2
21756 21758 21760 21761 1 180.0000771 15.1670000 2
21759 21758 21760 21761 1 180.0000771 15.1670000 2
21751 21760 21758 21756 1 180.0000771 15.1670000 2
21751 21760 21758 21759 1 180.0000771 15.1670000 2
21756 21760 21758 21759 4 180.0000771 4.6024000 2
21762 21763 21764 21765 1 180.0000771 15.1670000 2
21762 21763 21764 21766 1 180.0000771 15.1670000 2
21765 21763 21764 21766 4 180.0000771 4.6024000 2
21762 21763 21772 21764 4 180.0000771 4.6024000 2
21762 21763 21772 21770 1 180.0000771 15.1670000 2
21762 21763 21772 21773 1 180.0000771 15.1670000 2
21764 21763 21772 21770 1 180.0000771 15.1670000 2
21764 21763 21772 21773 1 180.0000771 15.1670000 2
21765 21764 21763 21772 1 180.0000771 15.1670000 2
21766 21764 21763 21772 1 180.0000771 15.1670000 2
21763 21764 21766 21767 1 180.0000771 15.1670000 2
21763 21764 21766 21768 1 180.0000771 15.1670000 2
21765 21764 21766 21767 1 180.0000771 15.1670000 2
21765 21764 21766 21768 1 180.0000771 15.1670000 2
21764 21766 21768 21769 1 180.0000771 15.1670000 2
21764 21766 21768 21770 1 180.0000771 15.1670000 2
21767 21766 21768 21769 1 180.0000771 15.1670000 2
21767 21766 21768 21770 1 180.0000771 15.1670000 2
21764 21768 21766 21767 4 180.0000771 4.6024000 2
21766 21768 21770 21771 1 180.0000771 15.1670000 2
21766 21768 21770 21772 1 180.0000771 15.1670000 2
21769 21768 21770 21771 1 180.0000771 15.1670000 2
21769 21768 21770 21772 1 180.0000771 15.1670000 2
21766 21770 21768 21769 4 180.0000771 4.6024000 2
21763 21770 21772 21773 4 180.0000771 4.6024000 2
21768 21770 21772 21773 1 180.0000771 15.1670000 2
21771 21770 21772 21773 1 180.0000771 15.1670000 2
21763 21772 21770 21768 1 180.0000771 15.1670000 2
21763 21772 21770 21771 1 180.0000771 15.1670000 2
21768 21772 21770 21771 4 180.0000771 4.6024000 2
21774 21775 21776 21777 1 180.0000771 15.1670000 2
21774 21775 21776 21778 1 180.0000771 15.1670000 2
21777 21775 21776 21778 4 180.0000771 4.6024000 2
21774 21775 21784 21776 4 180.0000771 4.6024000 2
21774 21775 21784 21782 1 180.0000771 15.1670000 2
21774 21775 21784 21785 1 180.0000771 15.1670000 2
21776 21775 21784 21782 1 180.0000771 15.1670000 2
21776 21775 21784 21785 1 180.0000771 15.1670000 2
21777 21776 21775 21784 1 180.0000771 15.1670000 2
21778 21776 21775 21784 1 180.0000771 15.1670000 2
21775 21776 21778 21779 1 180.0000771 15.1670000 2
21775 21776 21778 21780 1 180.0000771 15.1670000 2
21777 21776 21778 21779 1 180.0000771 15.1670000 2
21777 21776 21778 21780 1 180.0000771 15.1670000 2
21776 21778 21780 21781 1 180.0000771 15.1670000 2
21776 21778 21780 21782 1 180.0000771 15.1670000 2
21779 21778 21780 21781 1 180.0000771 15.1670000 2
21779 21778 21780 21782 1 180.0000771 15.1670000 2
21776 21780 21778 21779 4 180.0000771 4.6024000 2
21778 21780 21782 21783 1 180.0000771 15.1670000 2
21778 21780 21782 21784 1 180.0000771 15.1670000 2
21781 21780 21782 21783 1 180.0000771 15.1670000 2
21781 21780 21782 21784 1 180.0000771 15.1670000 2
21778 21782 21780 21781 4 180.0000771 4.6024000 2
21775 21782 21784 21785 4 180.0000771 4.6024000 2
21780 21782 21784 21785 1 180.0000771 15.1670000 2
21783 21782 21784 21785 1 180.0000771 15.1670000 2
21775 21784 21782 21780 1 180.0000771 15.1670000 2
21775 21784 21782 21783 1 180.0000771 15.1670000 2
21780 21784 21782 21783 4 180.0000771 4.6024000 2
21786 21787 21788 21789 1 180.0000771 15.1670000 2
21786 21787 21788 21790 1 180.0000771 15.1670000 2
21789 21787 21788 21790 4 180.0000771 4.6024000 2
21786 21787 21796 21788 4 180.0000771 4.6024000 2
21786 21787 21796 21794 1 180.0000771 15.1670000 2
21786 21787 21796 21797 1 180.0000771 15.1670000 2
21788 21787 21796 21794 1 180.0000771 15.1670000 2
21788 21787 21796 21797 1 180.0000771 15.1670000 2
21789 21788 21787 21796 1 180.0000771 15.1670000 2
21790 21788 21787 21796 1 180.0000771 15.1670000 2
21787 21788 21790 21791 1 180.0000771 15.1670000 2
21787 21788 21790 21792 1 180.0000771 15.1670000 2
21789 21788 21790 21791 1 180.0000771 15.1670000 2
21789 21788 21790 21792 1 180.0000771 15.1670000 2
21788 21790 21792 21793 1 180.0000771 15.1670000 2
21788 21790 21792 21794 1 180.0000771 15.1670000 2
21791 21790 21792 21793 1 180.0000771 15.1670000 2
21791 21790 21792 21794 1 180.0000771 15.1670000 2
21788 21792 21790 21791 4 180.0000771 4.6024000 2
21790 21792 21794 21795 1 180.0000771 15.1670000 2
21790 21792 21794 21796 1 180.0000771 15.1670000 2
21793 21792 21794 21795 1 180.0000771 15.1670000 2
21793 21792 21794 21796 1 180.0000771 15.1670000 2
21790 21794 21792 21793 4 180.0000771 4.6024000 2
21787 21794 21796 21797 4 180.0000771 4.6024000 2
21792 21794 21796 21797 1 180.0000771 15.1670000 2
21795 21794 21796 21797 1 180.0000771 15.1670000 2
21787 21796 21794 21792 1 180.0000771 15.1670000 2
21787 21796 21794 21795 1 180.0000771 15.1670000 2
21792 21796 21794 21795 4 180.0000771 4.6024000 2
21798 21799 21800 21801 1 180.0000771 15.1670000 2
21798 21799 21800 21802 1 180.0000771 15.1670000 2
21801 21799 21800 21802 4 180.0000771 4.6024000 2
21798 21799 21808 21800 4 180.0000771 4.6024000 2
21798 21799 21808 21806 1 180.0000771 15.1670000 2
21798 21799 21808 21809 1 180.0000771 15.1670000 2
21800 21799 21808 21806 1 180.0000771 15.1670000 2
21800 21799 21808 21809 1 180.0000771 15.1670000 2
21801 21800 21799 21808 1 180.0000771 15.1670000 2
21802 21800 21799 21808 1 180.0000771 15.1670000 2
21799 21800 21802 21803 1 180.0000771 15.1670000 2
21799 21800 21802 21804 1 180.0000771 15.1670000 2
21801 21800 21802 21803 1 180.0000771 15.1670000 2
21801 21800 21802 21804 1 180.0000771 15.1670000 2
21800 21802 21804 21805 1 180.0000771 15.1670000 2
21800 21802 21804 21806 1 180.0000771 15.1670000 2
21803 21802 21804 21805 1 180.0000771 15.1670000 2
21803 21802 21804 21806 1 180.0000771 15.1670000 2
21800 21804 21802 21803 4 180.0000771 4.6024000 2
21802 21804 21806 21807 1 180.0000771 15.1670000 2
21802 21804 21806 21808 1 180.0000771 15.1670000 2
21805 21804 21806 21807 1 180.0000771 15.1670000 2
21805 21804 21806 21808 1 180.0000771 15.1670000 2
21802 21806 21804 21805 4 180.0000771 4.6024000 2
21799 21806 21808 21809 4 180.0000771 4.6024000 2
21804 21806 21808 21809 1 180.0000771 15.1670000 2
21807 21806 21808 21809 1 180.0000771 15.1670000 2
21799 21808 21806 21804 1 180.0000771 15.1670000 2
21799 21808 21806 21807 1 180.0000771 15.1670000 2
21804 21808 21806 21807 4 180.0000771 4.6024000 2
21810 21811 21812 21813 1 180.0000771 15.1670000 2
21810 21811 21812 21814 1 180.0000771 15.1670000 2
21813 21811 21812 21814 4 180.0000771 4.6024000 2
21810 21811 21820 21812 4 180.0000771 4.6024000 2
21810 21811 21820 21818 1 180.0000771 15.1670000 2
21810 21811 21820 21821 1 180.0000771 15.1670000 2
21812 21811 21820 21818 1 180.0000771 15.1670000 2
21812 21811 21820 21821 1 180.0000771 15.1670000 2
21813 21812 21811 21820 1 180.0000771 15.1670000 2
21814 21812 21811 21820 1 180.0000771 15.1670000 2
21811 21812 21814 21815 1 180.0000771 15.1670000 2
21811 21812 21814 21816 1 180.0000771 15.1670000 2
21813 21812 21814 21815 1 180.0000771 15.1670000 2
21813 21812 21814 21816 1 180.0000771 15.1670000 2
21812 21814 21816 21817 1 180.0000771 15.1670000 2
21812 21814 21816 21818 1 180.0000771 15.1670000 2
21815 21814 21816 21817 1 180.0000771 15.1670000 2
21815 21814 21816 21818 1 180.0000771 15.1670000 2
21812 21816 21814 21815 4 180.0000771 4.6024000 2
21814 21816 21818 21819 1 180.0000771 15.1670000 2
21814 21816 21818 21820 1 180.0000771 15.1670000 2
21817 21816 21818 21819 1 180.0000771 15.1670000 2
21817 21816 21818 21820 1 180.0000771 15.1670000 2
21814 21818 21816 21817 4 180.0000771 4.6024000 2
21811 21818 21820 21821 4 180.0000771 4.6024000 2
21816 21818 21820 21821 1 180.0000771 15.1670000 2
21819 21818 21820 21821 1 180.0000771 15.1670000 2
21811 21820 21818 21816 1 180.0000771 15.1670000 2
21811 21820 21818 21819 1 180.0000771 15.1670000 2
21816 21820 21818 21819 4 180.0000771 4.6024000 2
21822 21823 21824 21825 1 180.0000771 15.1670000 2
21822 21823 21824 21826 1 180.0000771 15.1670000 2
21825 21823 21824 21826 4 180.0000771 4.6024000 2
21822 21823 21832 21824 4 180.0000771 4.6024000 2
21822 21823 21832 21830 1 180.0000771 15.1670000 2
21822 21823 21832 21833 1 180.0000771 15.1670000 2
21824 21823 21832 21830 1 180.0000771 15.1670000 2
21824 21823 21832 21833 1 180.0000771 15.1670000 2
21825 21824 21823 21832 1 180.0000771 15.1670000 2
21826 21824 21823 21832 1 180.0000771 15.1670000 2
21823 21824 21826 21827 1 180.0000771 15.1670000 2
21823 21824 21826 21828 1 180.0000771 15.1670000 2
21825 21824 21826 21827 1 180.0000771 15.1670000 2
21825 21824 21826 21828 1 180.0000771 15.1670000 2
21824 21826 21828 21829 1 180.0000771 15.1670000 2
21824 21826 21828 21830 1 180.0000771 15.1670000 2
21827 21826 21828 21829 1 180.0000771 15.1670000 2
21827 21826 21828 21830 1 180.0000771 15.1670000 2
21824 21828 21826 21827 4 180.0000771 4.6024000 2
21826 21828 21830 21831 1 180.0000771 15.1670000 2
21826 21828 21830 21832 1 180.0000771 15.1670000 2
21829 21828 21830 21831 1 180.0000771 15.1670000 2
21829 21828 21830 21832 1 180.0000771 15.1670000 2
21826 21830 21828 21829 4 180.0000771 4.6024000 2
21823 21830 21832 21833 4 180.0000771 4.6024000 2
21828 21830 21832 21833 1 180.0000771 15.1670000 2
21831 21830 21832 21833 1 180.0000771 15.1670000 2
21823 21832 21830 21828 1 180.0000771 15.1670000 2
21823 21832 21830 21831 1 180.0000771 15.1670000 2
21828 21832 21830 21831 4 180.0000771 4.6024000 2
21834 21835 21836 21837 1 180.0000771 15.1670000 2
21834 21835 21836 21838 1 180.0000771 15.1670000 2
21837 21835 21836 21838 4 180.0000771 4.6024000 2
21834 21835 21844 21836 4 180.0000771 4.6024000 2
21834 21835 21844 21842 1 180.0000771 15.1670000 2
21834 21835 21844 21845 1 180.0000771 15.1670000 2
21836 21835 21844 21842 1 180.0000771 15.1670000 2
21836 21835 21844 21845 1 180.0000771 15.1670000 2
21837 21836 21835 21844 1 180.0000771 15.1670000 2
21838 21836 21835 21844 1 180.0000771 15.1670000 2
21835 21836 21838 21839 1 180.0000771 15.1670000 2
21835 21836 21838 21840 1 180.0000771 15.1670000 2
21837 21836 21838 21839 1 180.0000771 15.1670000 2
21837 21836 21838 21840 1 180.0000771 15.1670000 2
21836 21838 21840 21841 1 180.0000771 15.1670000 2
21836 21838 21840 21842 1 180.0000771 15.1670000 2
21839 21838 21840 21841 1 180.0000771 15.1670000 2
21839 21838 21840 21842 1 180.0000771 15.1670000 2
21836 21840 21838 21839 4 180.0000771 4.6024000 2
21838 21840 21842 21843 1 180.0000771 15.1670000 2
21838 21840 21842 21844 1 180.0000771 15.1670000 2
21841 21840 21842 21843 1 180.0000771 15.1670000 2
21841 21840 21842 21844 1 180.0000771 15.1670000 2
21838 21842 21840 21841 4 180.0000771 4.6024000 2
21835 21842 21844 21845 4 180.0000771 4.6024000 2
21840 21842 21844 21845 1 180.0000771 15.1670000 2
21843 21842 21844 21845 1 180.0000771 15.1670000 2
21835 21844 21842 21840 1 180.0000771 15.1670000 2
21835 21844 21842 21843 1 180.0000771 15.1670000 2
21840 21844 21842 21843 4 180.0000771 4.6024000 2
21846 21847 21848 21849 1 180.0000771 15.1670000 2
21846 21847 21848 21850 1 180.0000771 15.1670000 2
21849 21847 21848 21850 4 180.0000771 4.6024000 2
21846 21847 21856 21848 4 180.0000771 4.6024000 2
21846 21847 21856 21854 1 180.0000771 15.1670000 2
21846 21847 21856 21857 1 180.0000771 15.1670000 2
21848 21847 21856 21854 1 180.0000771 15.1670000 2
21848 21847 21856 21857 1 180.0000771 15.1670000 2
21849 21848 21847 21856 1 180.0000771 15.1670000 2
21850 21848 21847 21856 1 180.0000771 15.1670000 2
21847 21848 21850 21851 1 180.0000771 15.1670000 2
21847 21848 21850 21852 1 180.0000771 15.1670000 2
21849 21848 21850 21851 1 180.0000771 15.1670000 2
21849 21848 21850 21852 1 180.0000771 15.1670000 2
21848 21850 21852 21853 1 180.0000771 15.1670000 2
21848 21850 21852 21854 1 180.0000771 15.1670000 2
21851 21850 21852 21853 1 180.0000771 15.1670000 2
21851 21850 21852 21854 1 180.0000771 15.1670000 2
21848 21852 21850 21851 4 180.0000771 4.6024000 2
21850 21852 21854 21855 1 180.0000771 15.1670000 2
21850 21852 21854 21856 1 180.0000771 15.1670000 2
21853 21852 21854 21855 1 180.0000771 15.1670000 2
21853 21852 21854 21856 1 180.0000771 15.1670000 2
21850 21854 21852 21853 4 180.0000771 4.6024000 2
21847 21854 21856 21857 4 180.0000771 4.6024000 2
21852 21854 21856 21857 1 180.0000771 15.1670000 2
21855 21854 21856 21857 1 180.0000771 15.1670000 2
21847 21856 21854 21852 1 180.0000771 15.1670000 2
21847 21856 21854 21855 1 180.0000771 15.1670000 2
21852 21856 21854 21855 4 180.0000771 4.6024000 2
21858 21859 21860 21861 1 180.0000771 15.1670000 2
21858 21859 21860 21862 1 180.0000771 15.1670000 2
21861 21859 21860 21862 4 180.0000771 4.6024000 2
21858 21859 21868 21860 4 180.0000771 4.6024000 2
21858 21859 21868 21866 1 180.0000771 15.1670000 2
21858 21859 21868 21869 1 180.0000771 15.1670000 2
21860 21859 21868 21866 1 180.0000771 15.1670000 2
21860 21859 21868 21869 1 180.0000771 15.1670000 2
21861 21860 21859 21868 1 180.0000771 15.1670000 2
21862 21860 21859 21868 1 180.0000771 15.1670000 2
21859 21860 21862 21863 1 180.0000771 15.1670000 2
21859 21860 21862 21864 1 180.0000771 15.1670000 2
21861 21860 21862 21863 1 180.0000771 15.1670000 2
21861 21860 21862 21864 1 180.0000771 15.1670000 2
21860 21862 21864 21865 1 180.0000771 15.1670000 2
21860 21862 21864 21866 1 180.0000771 15.1670000 2
21863 21862 21864 21865 1 180.0000771 15.1670000 2
21863 21862 21864 21866 1 180.0000771 15.1670000 2
21860 21864 21862 21863 4 180.0000771 4.6024000 2
21862 21864 21866 21867 1 180.0000771 15.1670000 2
21862 21864 21866 21868 1 180.0000771 15.1670000 2
21865 21864 21866 21867 1 180.0000771 15.1670000 2
21865 21864 21866 21868 1 180.0000771 15.1670000 2
21862 21866 21864 21865 4 180.0000771 4.6024000 2
21859 21866 21868 21869 4 180.0000771 4.6024000 2
21864 21866 21868 21869 1 180.0000771 15.1670000 2
21867 21866 21868 21869 1 180.0000771 15.1670000 2
21859 21868 21866 21864 1 180.0000771 15.1670000 2
21859 21868 21866 21867 1 180.0000771 15.1670000 2
21864 21868 21866 21867 4 180.0000771 4.6024000 2
21870 21871 21872 21873 1 180.0000771 15.1670000 2
21870 21871 21872 21874 1 180.0000771 15.1670000 2
21873 21871 21872 21874 4 180.0000771 4.6024000 2
21870 21871 21880 21872 4 180.0000771 4.6024000 2
21870 21871 21880 21878 1 180.0000771 15.1670000 2
21870 21871 21880 21881 1 180.0000771 15.1670000 2
21872 21871 21880 21878 1 180.0000771 15.1670000 2
21872 21871 21880 21881 1 180.0000771 15.1670000 2
21873 21872 21871 21880 1 180.0000771 15.1670000 2
21874 21872 21871 21880 1 180.0000771 15.1670000 2
21871 21872 21874 21875 1 180.0000771 15.1670000 2
21871 21872 21874 21876 1 180.0000771 15.1670000 2
21873 21872 21874 21875 1 180.0000771 15.1670000 2
21873 21872 21874 21876 1 180.0000771 15.1670000 2
21872 21874 21876 21877 1 180.0000771 15.1670000 2
21872 21874 21876 21878 1 180.0000771 15.1670000 2
21875 21874 21876 21877 1 180.0000771 15.1670000 2
21875 21874 21876 21878 1 180.0000771 15.1670000 2
21872 21876 21874 21875 4 180.0000771 4.6024000 2
21874 21876 21878 21879 1 180.0000771 15.1670000 2
21874 21876 21878 21880 1 180.0000771 15.1670000 2
21877 21876 21878 21879 1 180.0000771 15.1670000 2
21877 21876 21878 21880 1 180.0000771 15.1670000 2
21874 21878 21876 21877 4 180.0000771 4.6024000 2
21871 21878 21880 21881 4 180.0000771 4.6024000 2
21876 21878 21880 21881 1 180.0000771 15.1670000 2
21879 21878 21880 21881 1 180.0000771 15.1670000 2
21871 21880 21878 21876 1 180.0000771 15.1670000 2
21871 21880 21878 21879 1 180.0000771 15.1670000 2
21876 21880 21878 21879 4 180.0000771 4.6024000 2
21882 21883 21884 21885 1 180.0000771 15.1670000 2
21882 21883 21884 21886 1 180.0000771 15.1670000 2
21885 21883 21884 21886 4 180.0000771 4.6024000 2
21882 21883 21892 21884 4 180.0000771 4.6024000 2
21882 21883 21892 21890 1 180.0000771 15.1670000 2
21882 21883 21892 21893 1 180.0000771 15.1670000 2
21884 21883 21892 21890 1 180.0000771 15.1670000 2
21884 21883 21892 21893 1 180.0000771 15.1670000 2
21885 21884 21883 21892 1 180.0000771 15.1670000 2
21886 21884 21883 21892 1 180.0000771 15.1670000 2
21883 21884 21886 21887 1 180.0000771 15.1670000 2
21883 21884 21886 21888 1 180.0000771 15.1670000 2
21885 21884 21886 21887 1 180.0000771 15.1670000 2
21885 21884 21886 21888 1 180.0000771 15.1670000 2
21884 21886 21888 21889 1 180.0000771 15.1670000 2
21884 21886 21888 21890 1 180.0000771 15.1670000 2
21887 21886 21888 21889 1 180.0000771 15.1670000 2
21887 21886 21888 21890 1 180.0000771 15.1670000 2
21884 21888 21886 21887 4 180.0000771 4.6024000 2
21886 21888 21890 21891 1 180.0000771 15.1670000 2
21886 21888 21890 21892 1 180.0000771 15.1670000 2
21889 21888 21890 21891 1 180.0000771 15.1670000 2
21889 21888 21890 21892 1 180.0000771 15.1670000 2
21886 21890 21888 21889 4 180.0000771 4.6024000 2
21883 21890 21892 21893 4 180.0000771 4.6024000 2
21888 21890 21892 21893 1 180.0000771 15.1670000 2
21891 21890 21892 21893 1 180.0000771 15.1670000 2
21883 21892 21890 21888 1 180.0000771 15.1670000 2
21883 21892 21890 21891 1 180.0000771 15.1670000 2
21888 21892 21890 21891 4 180.0000771 4.6024000 2
21894 21895 21896 21897 1 180.0000771 15.1670000 2
21894 21895 21896 21898 1 180.0000771 15.1670000 2
21897 21895 21896 21898 4 180.0000771 4.6024000 2
21894 21895 21904 21896 4 180.0000771 4.6024000 2
21894 21895 21904 21902 1 180.0000771 15.1670000 2
21894 21895 21904 21905 1 180.0000771 15.1670000 2
21896 21895 21904 21902 1 180.0000771 15.1670000 2
21896 21895 21904 21905 1 180.0000771 15.1670000 2
21897 21896 21895 21904 1 180.0000771 15.1670000 2
21898 21896 21895 21904 1 180.0000771 15.1670000 2
21895 21896 21898 21899 1 180.0000771 15.1670000 2
21895 21896 21898 21900 1 180.0000771 15.1670000 2
21897 21896 21898 21899 1 180.0000771 15.1670000 2
21897 21896 21898 21900 1 180.0000771 15.1670000 2
21896 21898 21900 21901 1 180.0000771 15.1670000 2
21896 21898 21900 21902 1 180.0000771 15.1670000 2
21899 21898 21900 21901 1 180.0000771 15.1670000 2
21899 21898 21900 21902 1 180.0000771 15.1670000 2
21896 21900 21898 21899 4 180.0000771 4.6024000 2
21898 21900 21902 21903 1 180.0000771 15.1670000 2
21898 21900 21902 21904 1 180.0000771 15.1670000 2
21901 21900 21902 21903 1 180.0000771 15.1670000 2
21901 21900 21902 21904 1 180.0000771 15.1670000 2
21898 21902 21900 21901 4 180.0000771 4.6024000 2
21895 21902 21904 21905 4 180.0000771 4.6024000 2
21900 21902 21904 21905 1 180.0000771 15.1670000 2
21903 21902 21904 21905 1 180.0000771 15.1670000 2
21895 21904 21902 21900 1 180.0000771 15.1670000 2
21895 21904 21902 21903 1 180.0000771 15.1670000 2
21900 21904 21902 21903 4 180.0000771 4.6024000 2
21906 21907 21908 21909 1 180.0000771 15.1670000 2
21906 21907 21908 21910 1 180.0000771 15.1670000 2
21909 21907 21908 21910 4 180.0000771 4.6024000 2
21906 21907 21916 21908 4 180.0000771 4.6024000 2
21906 21907 21916 21914 1 180.0000771 15.1670000 2
21906 21907 21916 21917 1 180.0000771 15.1670000 2
21908 21907 21916 21914 1 180.0000771 15.1670000 2
21908 21907 21916 21917 1 180.0000771 15.1670000 2
21909 21908 21907 21916 1 180.0000771 15.1670000 2
21910 21908 21907 21916 1 180.0000771 15.1670000 2
21907 21908 21910 21911 1 180.0000771 15.1670000 2
21907 21908 21910 21912 1 180.0000771 15.1670000 2
21909 21908 21910 21911 1 180.0000771 15.1670000 2
21909 21908 21910 21912 1 180.0000771 15.1670000 2
21908 21910 21912 21913 1 180.0000771 15.1670000 2
21908 21910 21912 21914 1 180.0000771 15.1670000 2
21911 21910 21912 21913 1 180.0000771 15.1670000 2
21911 21910 21912 21914 1 180.0000771 15.1670000 2
21908 21912 21910 21911 4 180.0000771 4.6024000 2
21910 21912 21914 21915 1 180.0000771 15.1670000 2
21910 21912 21914 21916 1 180.0000771 15.1670000 2
21913 21912 21914 21915 1 180.0000771 15.1670000 2
21913 21912 21914 21916 1 180.0000771 15.1670000 2
21910 21914 21912 21913 4 180.0000771 4.6024000 2
21907 21914 21916 21917 4 180.0000771 4.6024000 2
21912 21914 21916 21917 1 180.0000771 15.1670000 2
21915 21914 21916 21917 1 180.0000771 15.1670000 2
21907 21916 21914 21912 1 180.0000771 15.1670000 2
21907 21916 21914 21915 1 180.0000771 15.1670000 2
21912 21916 21914 21915 4 180.0000771 4.6024000 2
21918 21919 21920 21921 1 180.0000771 15.1670000 2
21918 21919 21920 21922 1 180.0000771 15.1670000 2
21921 21919 21920 21922 4 180.0000771 4.6024000 2
21918 21919 21928 21920 4 180.0000771 4.6024000 2
21918 21919 21928 21926 1 180.0000771 15.1670000 2
21918 21919 21928 21929 1 180.0000771 15.1670000 2
21920 21919 21928 21926 1 180.0000771 15.1670000 2
21920 21919 21928 21929 1 180.0000771 15.1670000 2
21921 21920 21919 21928 1 180.0000771 15.1670000 2
21922 21920 21919 21928 1 180.0000771 15.1670000 2
21919 21920 21922 21923 1 180.0000771 15.1670000 2
21919 21920 21922 21924 1 180.0000771 15.1670000 2
21921 21920 21922 21923 1 180.0000771 15.1670000 2
21921 21920 21922 21924 1 180.0000771 15.1670000 2
21920 21922 21924 21925 1 180.0000771 15.1670000 2
21920 21922 21924 21926 1 180.0000771 15.1670000 2
21923 21922 21924 21925 1 180.0000771 15.1670000 2
21923 21922 21924 21926 1 180.0000771 15.1670000 2
21920 21924 21922 21923 4 180.0000771 4.6024000 2
21922 21924 21926 21927 1 180.0000771 15.1670000 2
21922 21924 21926 21928 1 180.0000771 15.1670000 2
21925 21924 21926 21927 1 180.0000771 15.1670000 2
21925 21924 21926 21928 1 180.0000771 15.1670000 2
21922 21926 21924 21925 4 180.0000771 4.6024000 2
21919 21926 21928 21929 4 180.0000771 4.6024000 2
21924 21926 21928 21929 1 180.0000771 15.1670000 2
21927 21926 21928 21929 1 180.0000771 15.1670000 2
21919 21928 21926 21924 1 180.0000771 15.1670000 2
21919 21928 21926 21927 1 180.0000771 15.1670000 2
21924 21928 21926 21927 4 180.0000771 4.6024000 2
21930 21931 21932 21933 1 180.0000771 15.1670000 2
21930 21931 21932 21934 1 180.0000771 15.1670000 2
21933 21931 21932 21934 4 180.0000771 4.6024000 2
21930 21931 21940 21932 4 180.0000771 4.6024000 2
21930 21931 21940 21938 1 180.0000771 15.1670000 2
21930 21931 21940 21941 1 180.0000771 15.1670000 2
21932 21931 21940 21938 1 180.0000771 15.1670000 2
21932 21931 21940 21941 1 180.0000771 15.1670000 2
21933 21932 21931 21940 1 180.0000771 15.1670000 2
21934 21932 21931 21940 1 180.0000771 15.1670000 2
21931 21932 21934 21935 1 180.0000771 15.1670000 2
21931 21932 21934 21936 1 180.0000771 15.1670000 2
21933 21932 21934 21935 1 180.0000771 15.1670000 2
21933 21932 21934 21936 1 180.0000771 15.1670000 2
21932 21934 21936 21937 1 180.0000771 15.1670000 2
21932 21934 21936 21938 1 180.0000771 15.1670000 2
21935 21934 21936 21937 1 180.0000771 15.1670000 2
21935 21934 21936 21938 1 180.0000771 15.1670000 2
21932 21936 21934 21935 4 180.0000771 4.6024000 2
21934 21936 21938 21939 1 180.0000771 15.1670000 2
21934 21936 21938 21940 1 180.0000771 15.1670000 2
21937 21936 21938 21939 1 180.0000771 15.1670000 2
21937 21936 21938 21940 1 180.0000771 15.1670000 2
21934 21938 21936 21937 4 180.0000771 4.6024000 2
21931 21938 21940 21941 4 180.0000771 4.6024000 2
21936 21938 21940 21941 1 180.0000771 15.1670000 2
21939 21938 21940 21941 1 180.0000771 15.1670000 2
21931 21940 21938 21936 1 180.0000771 15.1670000 2
21931 21940 21938 21939 1 180.0000771 15.1670000 2
21936 21940 21938 21939 4 180.0000771 4.6024000 2
21942 21943 21944 21945 1 180.0000771 15.1670000 2
21942 21943 21944 21946 1 180.0000771 15.1670000 2
21945 21943 21944 21946 4 180.0000771 4.6024000 2
21942 21943 21952 21944 4 180.0000771 4.6024000 2
21942 21943 21952 21950 1 180.0000771 15.1670000 2
21942 21943 21952 21953 1 180.0000771 15.1670000 2
21944 21943 21952 21950 1 180.0000771 15.1670000 2
21944 21943 21952 21953 1 180.0000771 15.1670000 2
21945 21944 21943 21952 1 180.0000771 15.1670000 2
21946 21944 21943 21952 1 180.0000771 15.1670000 2
21943 21944 21946 21947 1 180.0000771 15.1670000 2
21943 21944 21946 21948 1 180.0000771 15.1670000 2
21945 21944 21946 21947 1 180.0000771 15.1670000 2
21945 21944 21946 21948 1 180.0000771 15.1670000 2
21944 21946 21948 21949 1 180.0000771 15.1670000 2
21944 21946 21948 21950 1 180.0000771 15.1670000 2
21947 21946 21948 21949 1 180.0000771 15.1670000 2
21947 21946 21948 21950 1 180.0000771 15.1670000 2
21944 21948 21946 21947 4 180.0000771 4.6024000 2
21946 21948 21950 21951 1 180.0000771 15.1670000 2
21946 21948 21950 21952 1 180.0000771 15.1670000 2
21949 21948 21950 21951 1 180.0000771 15.1670000 2
21949 21948 21950 21952 1 180.0000771 15.1670000 2
21946 21950 21948 21949 4 180.0000771 4.6024000 2
21943 21950 21952 21953 4 180.0000771 4.6024000 2
21948 21950 21952 21953 1 180.0000771 15.1670000 2
21951 21950 21952 21953 1 180.0000771 15.1670000 2
21943 21952 21950 21948 1 180.0000771 15.1670000 2
21943 21952 21950 21951 1 180.0000771 15.1670000 2
21948 21952 21950 21951 4 180.0000771 4.6024000 2
21954 21955 21956 21957 1 180.0000771 15.1670000 2
21954 21955 21956 21958 1 180.0000771 15.1670000 2
21957 21955 21956 21958 4 180.0000771 4.6024000 2
21954 21955 21964 21956 4 180.0000771 4.6024000 2
21954 21955 21964 21962 1 180.0000771 15.1670000 2
21954 21955 21964 21965 1 180.0000771 15.1670000 2
21956 21955 21964 21962 1 180.0000771 15.1670000 2
21956 21955 21964 21965 1 180.0000771 15.1670000 2
21957 21956 21955 21964 1 180.0000771 15.1670000 2
21958 21956 21955 21964 1 180.0000771 15.1670000 2
21955 21956 21958 21959 1 180.0000771 15.1670000 2
21955 21956 21958 21960 1 180.0000771 15.1670000 2
21957 21956 21958 21959 1 180.0000771 15.1670000 2
21957 21956 21958 21960 1 180.0000771 15.1670000 2
21956 21958 21960 21961 1 180.0000771 15.1670000 2
21956 21958 21960 21962 1 180.0000771 15.1670000 2
21959 21958 21960 21961 1 180.0000771 15.1670000 2
21959 21958 21960 21962 1 180.0000771 15.1670000 2
21956 21960 21958 21959 4 180.0000771 4.6024000 2
21958 21960 21962 21963 1 180.0000771 15.1670000 2
21958 21960 21962 21964 1 180.0000771 15.1670000 2
21961 21960 21962 21963 1 180.0000771 15.1670000 2
21961 21960 21962 21964 1 180.0000771 15.1670000 2
21958 21962 21960 21961 4 180.0000771 4.6024000 2
21955 21962 21964 21965 4 180.0000771 4.6024000 2
21960 21962 21964 21965 1 180.0000771 15.1670000 2
21963 21962 21964 21965 1 180.0000771 15.1670000 2
21955 21964 21962 21960 1 180.0000771 15.1670000 2
21955 21964 21962 21963 1 180.0000771 15.1670000 2
21960 21964 21962 21963 4 180.0000771 4.6024000 2
21966 21967 21968 21969 1 180.0000771 15.1670000 2
21966 21967 21968 21970 1 180.0000771 15.1670000 2
21969 21967 21968 21970 4 180.0000771 4.6024000 2
21966 21967 21976 21968 4 180.0000771 4.6024000 2
21966 21967 21976 21974 1 180.0000771 15.1670000 2
21966 21967 21976 21977 1 180.0000771 15.1670000 2
21968 21967 21976 21974 1 180.0000771 15.1670000 2
21968 21967 21976 21977 1 180.0000771 15.1670000 2
21969 21968 21967 21976 1 180.0000771 15.1670000 2
21970 21968 21967 21976 1 180.0000771 15.1670000 2
21967 21968 21970 21971 1 180.0000771 15.1670000 2
21967 21968 21970 21972 1 180.0000771 15.1670000 2
21969 21968 21970 21971 1 180.0000771 15.1670000 2
21969 21968 21970 21972 1 180.0000771 15.1670000 2
21968 21970 21972 21973 1 180.0000771 15.1670000 2
21968 21970 21972 21974 1 180.0000771 15.1670000 2
21971 21970 21972 21973 1 180.0000771 15.1670000 2
21971 21970 21972 21974 1 180.0000771 15.1670000 2
21968 21972 21970 21971 4 180.0000771 4.6024000 2
21970 21972 21974 21975 1 180.0000771 15.1670000 2
21970 21972 21974 21976 1 180.0000771 15.1670000 2
21973 21972 21974 21975 1 180.0000771 15.1670000 2
21973 21972 21974 21976 1 180.0000771 15.1670000 2
21970 21974 21972 21973 4 180.0000771 4.6024000 2
21967 21974 21976 21977 4 180.0000771 4.6024000 2
21972 21974 21976 21977 1 180.0000771 15.1670000 2
21975 21974 21976 21977 1 180.0000771 15.1670000 2
21967 21976 21974 21972 1 180.0000771 15.1670000 2
21967 21976 21974 21975 1 180.0000771 15.1670000 2
21972 21976 21974 21975 4 180.0000771 4.6024000 2
21978 21979 21980 21981 1 180.0000771 15.1670000 2
21978 21979 21980 21982 1 180.0000771 15.1670000 2
21981 21979 21980 21982 4 180.0000771 4.6024000 2
21978 21979 21988 21980 4 180.0000771 4.6024000 2
21978 21979 21988 21986 1 180.0000771 15.1670000 2
21978 21979 21988 21989 1 180.0000771 15.1670000 2
21980 21979 21988 21986 1 180.0000771 15.1670000 2
21980 21979 21988 21989 1 180.0000771 15.1670000 2
21981 21980 21979 21988 1 180.0000771 15.1670000 2
21982 21980 21979 21988 1 180.0000771 15.1670000 2
21979 21980 21982 21983 1 180.0000771 15.1670000 2
21979 21980 21982 21984 1 180.0000771 15.1670000 2
21981 21980 21982 21983 1 180.0000771 15.1670000 2
21981 21980 21982 21984 1 180.0000771 15.1670000 2
21980 21982 21984 21985 1 180.0000771 15.1670000 2
21980 21982 21984 21986 1 180.0000771 15.1670000 2
21983 21982 21984 21985 1 180.0000771 15.1670000 2
21983 21982 21984 21986 1 180.0000771 15.1670000 2
21980 21984 21982 21983 4 180.0000771 4.6024000 2
21982 21984 21986 21987 1 180.0000771 15.1670000 2
21982 21984 21986 21988 1 180.0000771 15.1670000 2
21985 21984 21986 21987 1 180.0000771 15.1670000 2
21985 21984 21986 21988 1 180.0000771 15.1670000 2
21982 21986 21984 21985 4 180.0000771 4.6024000 2
21979 21986 21988 21989 4 180.0000771 4.6024000 2
21984 21986 21988 21989 1 180.0000771 15.1670000 2
21987 21986 21988 21989 1 180.0000771 15.1670000 2
21979 21988 21986 21984 1 180.0000771 15.1670000 2
21979 21988 21986 21987 1 180.0000771 15.1670000 2
21984 21988 21986 21987 4 180.0000771 4.6024000 2
21990 21991 21992 21993 1 180.0000771 15.1670000 2
21990 21991 21992 21994 1 180.0000771 15.1670000 2
21993 21991 21992 21994 4 180.0000771 4.6024000 2
21990 21991 22000 21992 4 180.0000771 4.6024000 2
21990 21991 22000 21998 1 180.0000771 15.1670000 2
21990 21991 22000 22001 1 180.0000771 15.1670000 2
21992 21991 22000 21998 1 180.0000771 15.1670000 2
21992 21991 22000 22001 1 180.0000771 15.1670000 2
21993 21992 21991 22000 1 180.0000771 15.1670000 2
21994 21992 21991 22000 1 180.0000771 15.1670000 2
21991 21992 21994 21995 1 180.0000771 15.1670000 2
21991 21992 21994 21996 1 180.0000771 15.1670000 2
21993 21992 21994 21995 1 180.0000771 15.1670000 2
21993 21992 21994 21996 1 180.0000771 15.1670000 2
21992 21994 21996 21997 1 180.0000771 15.1670000 2
21992 21994 21996 21998 1 180.0000771 15.1670000 2
21995 21994 21996 21997 1 180.0000771 15.1670000 2
21995 21994 21996 21998 1 180.0000771 15.1670000 2
21992 21996 21994 21995 4 180.0000771 4.6024000 2
21994 21996 21998 21999 1 180.0000771 15.1670000 2
21994 21996 21998 22000 1 180.0000771 15.1670000 2
21997 21996 21998 21999 1 180.0000771 15.1670000 2
21997 21996 21998 22000 1 180.0000771 15.1670000 2
21994 21998 21996 21997 4 180.0000771 4.6024000 2
21991 21998 22000 22001 4 180.0000771 4.6024000 2
21996 21998 22000 22001 1 180.0000771 15.1670000 2
21999 21998 22000 22001 1 180.0000771 15.1670000 2
21991 22000 21998 21996 1 180.0000771 15.1670000 2
21991 22000 21998 21999 1 180.0000771 15.1670000 2
21996 22000 21998 21999 4 180.0000771 4.6024000 2
22002 22003 22004 22005 1 180.0000771 15.1670000 2
22002 22003 22004 22006 1 180.0000771 15.1670000 2
22005 22003 22004 22006 4 180.0000771 4.6024000 2
22002 22003 22012 22004 4 180.0000771 4.6024000 2
22002 22003 22012 22010 1 180.0000771 15.1670000 2
22002 22003 22012 22013 1 180.0000771 15.1670000 2
22004 22003 22012 22010 1 180.0000771 15.1670000 2
22004 22003 22012 22013 1 180.0000771 15.1670000 2
22005 22004 22003 22012 1 180.0000771 15.1670000 2
22006 22004 22003 22012 1 180.0000771 15.1670000 2
22003 22004 22006 22007 1 180.0000771 15.1670000 2
22003 22004 22006 22008 1 180.0000771 15.1670000 2
22005 22004 22006 22007 1 180.0000771 15.1670000 2
22005 22004 22006 22008 1 180.0000771 15.1670000 2
22004 22006 22008 22009 1 180.0000771 15.1670000 2
22004 22006 22008 22010 1 180.0000771 15.1670000 2
22007 22006 22008 22009 1 180.0000771 15.1670000 2
22007 22006 22008 22010 1 180.0000771 15.1670000 2
22004 22008 22006 22007 4 180.0000771 4.6024000 2
22006 22008 22010 22011 1 180.0000771 15.1670000 2
22006 22008 22010 22012 1 180.0000771 15.1670000 2
22009 22008 22010 22011 1 180.0000771 15.1670000 2
22009 22008 22010 22012 1 180.0000771 15.1670000 2
22006 22010 22008 22009 4 180.0000771 4.6024000 2
22003 22010 22012 22013 4 180.0000771 4.6024000 2
22008 22010 22012 22013 1 180.0000771 15.1670000 2
22011 22010 22012 22013 1 180.0000771 15.1670000 2
22003 22012 22010 22008 1 180.0000771 15.1670000 2
22003 22012 22010 22011 1 180.0000771 15.1670000 2
22008 22012 22010 22011 4 180.0000771 4.6024000 2
22014 22015 22016 22017 1 180.0000771 15.1670000 2
22014 22015 22016 22018 1 180.0000771 15.1670000 2
22017 22015 22016 22018 4 180.0000771 4.6024000 2
22014 22015 22024 22016 4 180.0000771 4.6024000 2
22014 22015 22024 22022 1 180.0000771 15.1670000 2
22014 22015 22024 22025 1 180.0000771 15.1670000 2
22016 22015 22024 22022 1 180.0000771 15.1670000 2
22016 22015 22024 22025 1 180.0000771 15.1670000 2
22017 22016 22015 22024 1 180.0000771 15.1670000 2
22018 22016 22015 22024 1 180.0000771 15.1670000 2
22015 22016 22018 22019 1 180.0000771 15.1670000 2
22015 22016 22018 22020 1 180.0000771 15.1670000 2
22017 22016 22018 22019 1 180.0000771 15.1670000 2
22017 22016 22018 22020 1 180.0000771 15.1670000 2
22016 22018 22020 22021 1 180.0000771 15.1670000 2
22016 22018 22020 22022 1 180.0000771 15.1670000 2
22019 22018 22020 22021 1 180.0000771 15.1670000 2
22019 22018 22020 22022 1 180.0000771 15.1670000 2
22016 22020 22018 22019 4 180.0000771 4.6024000 2
22018 22020 22022 22023 1 180.0000771 15.1670000 2
22018 22020 22022 22024 1 180.0000771 15.1670000 2
22021 22020 22022 22023 1 180.0000771 15.1670000 2
22021 22020 22022 22024 1 180.0000771 15.1670000 2
22018 22022 22020 22021 4 180.0000771 4.6024000 2
22015 22022 22024 22025 4 180.0000771 4.6024000 2
22020 22022 22024 22025 1 180.0000771 15.1670000 2
22023 22022 22024 22025 1 180.0000771 15.1670000 2
22015 22024 22022 22020 1 180.0000771 15.1670000 2
22015 22024 22022 22023 1 180.0000771 15.1670000 2
22020 22024 22022 22023 4 180.0000771 4.6024000 2
22026 22027 22028 22029 1 180.0000771 15.1670000 2
22026 22027 22028 22030 1 180.0000771 15.1670000 2
22029 22027 22028 22030 4 180.0000771 4.6024000 2
22026 22027 22036 22028 4 180.0000771 4.6024000 2
22026 22027 22036 22034 1 180.0000771 15.1670000 2
22026 22027 22036 22037 1 180.0000771 15.1670000 2
22028 22027 22036 22034 1 180.0000771 15.1670000 2
22028 22027 22036 22037 1 180.0000771 15.1670000 2
22029 22028 22027 22036 1 180.0000771 15.1670000 2
22030 22028 22027 22036 1 180.0000771 15.1670000 2
22027 22028 22030 22031 1 180.0000771 15.1670000 2
22027 22028 22030 22032 1 180.0000771 15.1670000 2
22029 22028 22030 22031 1 180.0000771 15.1670000 2
22029 22028 22030 22032 1 180.0000771 15.1670000 2
22028 22030 22032 22033 1 180.0000771 15.1670000 2
22028 22030 22032 22034 1 180.0000771 15.1670000 2
22031 22030 22032 22033 1 180.0000771 15.1670000 2
22031 22030 22032 22034 1 180.0000771 15.1670000 2
22028 22032 22030 22031 4 180.0000771 4.6024000 2
22030 22032 22034 22035 1 180.0000771 15.1670000 2
22030 22032 22034 22036 1 180.0000771 15.1670000 2
22033 22032 22034 22035 1 180.0000771 15.1670000 2
22033 22032 22034 22036 1 180.0000771 15.1670000 2
22030 22034 22032 22033 4 180.0000771 4.6024000 2
22027 22034 22036 22037 4 180.0000771 4.6024000 2
22032 22034 22036 22037 1 180.0000771 15.1670000 2
22035 22034 22036 22037 1 180.0000771 15.1670000 2
22027 22036 22034 22032 1 180.0000771 15.1670000 2
22027 22036 22034 22035 1 180.0000771 15.1670000 2
22032 22036 22034 22035 4 180.0000771 4.6024000 2
22038 22039 22040 22041 1 180.0000771 15.1670000 2
22038 22039 22040 22042 1 180.0000771 15.1670000 2
22041 22039 22040 22042 4 180.0000771 4.6024000 2
22038 22039 22048 22040 4 180.0000771 4.6024000 2
22038 22039 22048 22046 1 180.0000771 15.1670000 2
22038 22039 22048 22049 1 180.0000771 15.1670000 2
22040 22039 22048 22046 1 180.0000771 15.1670000 2
22040 22039 22048 22049 1 180.0000771 15.1670000 2
22041 22040 22039 22048 1 180.0000771 15.1670000 2
22042 22040 22039 22048 1 180.0000771 15.1670000 2
22039 22040 22042 22043 1 180.0000771 15.1670000 2
22039 22040 22042 22044 1 180.0000771 15.1670000 2
22041 22040 22042 22043 1 180.0000771 15.1670000 2
22041 22040 22042 22044 1 180.0000771 15.1670000 2
22040 22042 22044 22045 1 180.0000771 15.1670000 2
22040 22042 22044 22046 1 180.0000771 15.1670000 2
22043 22042 22044 22045 1 180.0000771 15.1670000 2
22043 22042 22044 22046 1 180.0000771 15.1670000 2
22040 22044 22042 22043 4 180.0000771 4.6024000 2
22042 22044 22046 22047 1 180.0000771 15.1670000 2
22042 22044 22046 22048 1 180.0000771 15.1670000 2
22045 22044 22046 22047 1 180.0000771 15.1670000 2
22045 22044 22046 22048 1 180.0000771 15.1670000 2
22042 22046 22044 22045 4 180.0000771 4.6024000 2
22039 22046 22048 22049 4 180.0000771 4.6024000 2
22044 22046 22048 22049 1 180.0000771 15.1670000 2
22047 22046 22048 22049 1 180.0000771 15.1670000 2
22039 22048 22046 22044 1 180.0000771 15.1670000 2
22039 22048 22046 22047 1 180.0000771 15.1670000 2
22044 22048 22046 22047 4 180.0000771 4.6024000 2
22050 22051 22052 22053 1 180.0000771 15.1670000 2
22050 22051 22052 22054 1 180.0000771 15.1670000 2
22053 22051 22052 22054 4 180.0000771 4.6024000 2
22050 22051 22060 22052 4 180.0000771 4.6024000 2
22050 22051 22060 22058 1 180.0000771 15.1670000 2
22050 22051 22060 22061 1 180.0000771 15.1670000 2
22052 22051 22060 22058 1 180.0000771 15.1670000 2
22052 22051 22060 22061 1 180.0000771 15.1670000 2
22053 22052 22051 22060 1 180.0000771 15.1670000 2
22054 22052 22051 22060 1 180.0000771 15.1670000 2
22051 22052 22054 22055 1 180.0000771 15.1670000 2
22051 22052 22054 22056 1 180.0000771 15.1670000 2
22053 22052 22054 22055 1 180.0000771 15.1670000 2
22053 22052 22054 22056 1 180.0000771 15.1670000 2
22052 22054 22056 22057 1 180.0000771 15.1670000 2
22052 22054 22056 22058 1 180.0000771 15.1670000 2
22055 22054 22056 22057 1 180.0000771 15.1670000 2
22055 22054 22056 22058 1 180.0000771 15.1670000 2
22052 22056 22054 22055 4 180.0000771 4.6024000 2
22054 22056 22058 22059 1 180.0000771 15.1670000 2
22054 22056 22058 22060 1 180.0000771 15.1670000 2
22057 22056 22058 22059 1 180.0000771 15.1670000 2
22057 22056 22058 22060 1 180.0000771 15.1670000 2
22054 22058 22056 22057 4 180.0000771 4.6024000 2
22051 22058 22060 22061 4 180.0000771 4.6024000 2
22056 22058 22060 22061 1 180.0000771 15.1670000 2
22059 22058 22060 22061 1 180.0000771 15.1670000 2
22051 22060 22058 22056 1 180.0000771 15.1670000 2
22051 22060 22058 22059 1 180.0000771 15.1670000 2
22056 22060 22058 22059 4 180.0000771 4.6024000 2
22062 22063 22064 22065 1 180.0000771 15.1670000 2
22062 22063 22064 22066 1 180.0000771 15.1670000 2
22065 22063 22064 22066 4 180.0000771 4.6024000 2
22062 22063 22072 22064 4 180.0000771 4.6024000 2
22062 22063 22072 22070 1 180.0000771 15.1670000 2
22062 22063 22072 22073 1 180.0000771 15.1670000 2
22064 22063 22072 22070 1 180.0000771 15.1670000 2
22064 22063 22072 22073 1 180.0000771 15.1670000 2
22065 22064 22063 22072 1 180.0000771 15.1670000 2
22066 22064 22063 22072 1 180.0000771 15.1670000 2
22063 22064 22066 22067 1 180.0000771 15.1670000 2
22063 22064 22066 22068 1 180.0000771 15.1670000 2
22065 22064 22066 22067 1 180.0000771 15.1670000 2
22065 22064 22066 22068 1 180.0000771 15.1670000 2
22064 22066 22068 22069 1 180.0000771 15.1670000 2
22064 22066 22068 22070 1 180.0000771 15.1670000 2
22067 22066 22068 22069 1 180.0000771 15.1670000 2
22067 22066 22068 22070 1 180.0000771 15.1670000 2
22064 22068 22066 22067 4 180.0000771 4.6024000 2
22066 22068 22070 22071 1 180.0000771 15.1670000 2
22066 22068 22070 22072 1 180.0000771 15.1670000 2
22069 22068 22070 22071 1 180.0000771 15.1670000 2
22069 22068 22070 22072 1 180.0000771 15.1670000 2
22066 22070 22068 22069 4 180.0000771 4.6024000 2
22063 22070 22072 22073 4 180.0000771 4.6024000 2
22068 22070 22072 22073 1 180.0000771 15.1670000 2
22071 22070 22072 22073 1 180.0000771 15.1670000 2
22063 22072 22070 22068 1 180.0000771 15.1670000 2
22063 22072 22070 22071 1 180.0000771 15.1670000 2
22068 22072 22070 22071 4 180.0000771 4.6024000 2
22074 22075 22076 22077 1 180.0000771 15.1670000 2
22074 22075 22076 22078 1 180.0000771 15.1670000 2
22077 22075 22076 22078 4 180.0000771 4.6024000 2
22074 22075 22084 22076 4 180.0000771 4.6024000 2
22074 22075 22084 22082 1 180.0000771 15.1670000 2
22074 22075 22084 22085 1 180.0000771 15.1670000 2
22076 22075 22084 22082 1 180.0000771 15.1670000 2
22076 22075 22084 22085 1 180.0000771 15.1670000 2
22077 22076 22075 22084 1 180.0000771 15.1670000 2
22078 22076 22075 22084 1 180.0000771 15.1670000 2
22075 22076 22078 22079 1 180.0000771 15.1670000 2
22075 22076 22078 22080 1 180.0000771 15.1670000 2
22077 22076 22078 22079 1 180.0000771 15.1670000 2
22077 22076 22078 22080 1 180.0000771 15.1670000 2
22076 22078 22080 22081 1 180.0000771 15.1670000 2
22076 22078 22080 22082 1 180.0000771 15.1670000 2
22079 22078 22080 22081 1 180.0000771 15.1670000 2
22079 22078 22080 22082 1 180.0000771 15.1670000 2
22076 22080 22078 22079 4 180.0000771 4.6024000 2
22078 22080 22082 22083 1 180.0000771 15.1670000 2
22078 22080 22082 22084 1 180.0000771 15.1670000 2
22081 22080 22082 22083 1 180.0000771 15.1670000 2
22081 22080 22082 22084 1 180.0000771 15.1670000 2
22078 22082 22080 22081 4 180.0000771 4.6024000 2
22075 22082 22084 22085 4 180.0000771 4.6024000 2
22080 22082 22084 22085 1 180.0000771 15.1670000 2
22083 22082 22084 22085 1 180.0000771 15.1670000 2
22075 22084 22082 22080 1 180.0000771 15.1670000 2
22075 22084 22082 22083 1 180.0000771 15.1670000 2
22080 22084 22082 22083 4 180.0000771 4.6024000 2
22086 22087 22088 22089 1 180.0000771 15.1670000 2
22086 22087 22088 22090 1 180.0000771 15.1670000 2
22089 22087 22088 22090 4 180.0000771 4.6024000 2
22086 22087 22096 22088 4 180.0000771 4.6024000 2
22086 22087 22096 22094 1 180.0000771 15.1670000 2
22086 22087 22096 22097 1 180.0000771 15.1670000 2
22088 22087 22096 22094 1 180.0000771 15.1670000 2
22088 22087 22096 22097 1 180.0000771 15.1670000 2
22089 22088 22087 22096 1 180.0000771 15.1670000 2
22090 22088 22087 22096 1 180.0000771 15.1670000 2
22087 22088 22090 22091 1 180.0000771 15.1670000 2
22087 22088 22090 22092 1 180.0000771 15.1670000 2
22089 22088 22090 22091 1 180.0000771 15.1670000 2
22089 22088 22090 22092 1 180.0000771 15.1670000 2
22088 22090 22092 22093 1 180.0000771 15.1670000 2
22088 22090 22092 22094 1 180.0000771 15.1670000 2
22091 22090 22092 22093 1 180.0000771 15.1670000 2
22091 22090 22092 22094 1 180.0000771 15.1670000 2
22088 22092 22090 22091 4 180.0000771 4.6024000 2
22090 22092 22094 22095 1 180.0000771 15.1670000 2
22090 22092 22094 22096 1 180.0000771 15.1670000 2
22093 22092 22094 22095 1 180.0000771 15.1670000 2
22093 22092 22094 22096 1 180.0000771 15.1670000 2
22090 22094 22092 22093 4 180.0000771 4.6024000 2
22087 22094 22096 22097 4 180.0000771 4.6024000 2
22092 22094 22096 22097 1 180.0000771 15.1670000 2
22095 22094 22096 22097 1 180.0000771 15.1670000 2
22087 22096 22094 22092 1 180.0000771 15.1670000 2
22087 22096 22094 22095 1 180.0000771 15.1670000 2
22092 22096 22094 22095 4 180.0000771 4.6024000 2
22098 22099 22100 22101 1 180.0000771 15.1670000 2
22098 22099 22100 22102 1 180.0000771 15.1670000 2
22101 22099 22100 22102 4 180.0000771 4.6024000 2
22098 22099 22108 22100 4 180.0000771 4.6024000 2
22098 22099 22108 22106 1 180.0000771 15.1670000 2
22098 22099 22108 22109 1 180.0000771 15.1670000 2
22100 22099 22108 22106 1 180.0000771 15.1670000 2
22100 22099 22108 22109 1 180.0000771 15.1670000 2
22101 22100 22099 22108 1 180.0000771 15.1670000 2
22102 22100 22099 22108 1 180.0000771 15.1670000 2
22099 22100 22102 22103 1 180.0000771 15.1670000 2
22099 22100 22102 22104 1 180.0000771 15.1670000 2
22101 22100 22102 22103 1 180.0000771 15.1670000 2
22101 22100 22102 22104 1 180.0000771 15.1670000 2
22100 22102 22104 22105 1 180.0000771 15.1670000 2
22100 22102 22104 22106 1 180.0000771 15.1670000 2
22103 22102 22104 22105 1 180.0000771 15.1670000 2
22103 22102 22104 22106 1 180.0000771 15.1670000 2
22100 22104 22102 22103 4 180.0000771 4.6024000 2
22102 22104 22106 22107 1 180.0000771 15.1670000 2
22102 22104 22106 22108 1 180.0000771 15.1670000 2
22105 22104 22106 22107 1 180.0000771 15.1670000 2
22105 22104 22106 22108 1 180.0000771 15.1670000 2
22102 22106 22104 22105 4 180.0000771 4.6024000 2
22099 22106 22108 22109 4 180.0000771 4.6024000 2
22104 22106 22108 22109 1 180.0000771 15.1670000 2
22107 22106 22108 22109 1 180.0000771 15.1670000 2
22099 22108 22106 22104 1 180.0000771 15.1670000 2
22099 22108 22106 22107 1 180.0000771 15.1670000 2
22104 22108 22106 22107 4 180.0000771 4.6024000 2
22110 22111 22112 22113 1 180.0000771 15.1670000 2
22110 22111 22112 22114 1 180.0000771 15.1670000 2
22113 22111 22112 22114 4 180.0000771 4.6024000 2
22110 22111 22120 22112 4 180.0000771 4.6024000 2
22110 22111 22120 22118 1 180.0000771 15.1670000 2
22110 22111 22120 22121 1 180.0000771 15.1670000 2
22112 22111 22120 22118 1 180.0000771 15.1670000 2
22112 22111 22120 22121 1 180.0000771 15.1670000 2
22113 22112 22111 22120 1 180.0000771 15.1670000 2
22114 22112 22111 22120 1 180.0000771 15.1670000 2
22111 22112 22114 22115 1 180.0000771 15.1670000 2
22111 22112 22114 22116 1 180.0000771 15.1670000 2
22113 22112 22114 22115 1 180.0000771 15.1670000 2
22113 22112 22114 22116 1 180.0000771 15.1670000 2
22112 22114 22116 22117 1 180.0000771 15.1670000 2
22112 22114 22116 22118 1 180.0000771 15.1670000 2
22115 22114 22116 22117 1 180.0000771 15.1670000 2
22115 22114 22116 22118 1 180.0000771 15.1670000 2
22112 22116 22114 22115 4 180.0000771 4.6024000 2
22114 22116 22118 22119 1 180.0000771 15.1670000 2
22114 22116 22118 22120 1 180.0000771 15.1670000 2
22117 22116 22118 22119 1 180.0000771 15.1670000 2
22117 22116 22118 22120 1 180.0000771 15.1670000 2
22114 22118 22116 22117 4 180.0000771 4.6024000 2
22111 22118 22120 22121 4 180.0000771 4.6024000 2
22116 22118 22120 22121 1 180.0000771 15.1670000 2
22119 22118 22120 22121 1 180.0000771 15.1670000 2
22111 22120 22118 22116 1 180.0000771 15.1670000 2
22111 22120 22118 22119 1 180.0000771 15.1670000 2
22116 22120 22118 22119 4 180.0000771 4.6024000 2
22122 22123 22124 22125 1 180.0000771 15.1670000 2
22122 22123 22124 22126 1 180.0000771 15.1670000 2
22125 22123 22124 22126 4 180.0000771 4.6024000 2
22122 22123 22132 22124 4 180.0000771 4.6024000 2
22122 22123 22132 22130 1 180.0000771 15.1670000 2
22122 22123 22132 22133 1 180.0000771 15.1670000 2
22124 22123 22132 22130 1 180.0000771 15.1670000 2
22124 22123 22132 22133 1 180.0000771 15.1670000 2
22125 22124 22123 22132 1 180.0000771 15.1670000 2
22126 22124 22123 22132 1 180.0000771 15.1670000 2
22123 22124 22126 22127 1 180.0000771 15.1670000 2
22123 22124 22126 22128 1 180.0000771 15.1670000 2
22125 22124 22126 22127 1 180.0000771 15.1670000 2
22125 22124 22126 22128 1 180.0000771 15.1670000 2
22124 22126 22128 22129 1 180.0000771 15.1670000 2
22124 22126 22128 22130 1 180.0000771 15.1670000 2
22127 22126 22128 22129 1 180.0000771 15.1670000 2
22127 22126 22128 22130 1 180.0000771 15.1670000 2
22124 22128 22126 22127 4 180.0000771 4.6024000 2
22126 22128 22130 22131 1 180.0000771 15.1670000 2
22126 22128 22130 22132 1 180.0000771 15.1670000 2
22129 22128 22130 22131 1 180.0000771 15.1670000 2
22129 22128 22130 22132 1 180.0000771 15.1670000 2
22126 22130 22128 22129 4 180.0000771 4.6024000 2
22123 22130 22132 22133 4 180.0000771 4.6024000 2
22128 22130 22132 22133 1 180.0000771 15.1670000 2
22131 22130 22132 22133 1 180.0000771 15.1670000 2
22123 22132 22130 22128 1 180.0000771 15.1670000 2
22123 22132 22130 22131 1 180.0000771 15.1670000 2
22128 22132 22130 22131 4 180.0000771 4.6024000 2
22134 22135 22136 22137 1 180.0000771 15.1670000 2
22134 22135 22136 22138 1 180.0000771 15.1670000 2
22137 22135 22136 22138 4 180.0000771 4.6024000 2
22134 22135 22144 22136 4 180.0000771 4.6024000 2
22134 22135 22144 22142 1 180.0000771 15.1670000 2
22134 22135 22144 22145 1 180.0000771 15.1670000 2
22136 22135 22144 22142 1 180.0000771 15.1670000 2
22136 22135 22144 22145 1 180.0000771 15.1670000 2
22137 22136 22135 22144 1 180.0000771 15.1670000 2
22138 22136 22135 22144 1 180.0000771 15.1670000 2
22135 22136 22138 22139 1 180.0000771 15.1670000 2
22135 22136 22138 22140 1 180.0000771 15.1670000 2
22137 22136 22138 22139 1 180.0000771 15.1670000 2
22137 22136 22138 22140 1 180.0000771 15.1670000 2
22136 22138 22140 22141 1 180.0000771 15.1670000 2
22136 22138 22140 22142 1 180.0000771 15.1670000 2
22139 22138 22140 22141 1 180.0000771 15.1670000 2
22139 22138 22140 22142 1 180.0000771 15.1670000 2
22136 22140 22138 22139 4 180.0000771 4.6024000 2
22138 22140 22142 22143 1 180.0000771 15.1670000 2
22138 22140 22142 22144 1 180.0000771 15.1670000 2
22141 22140 22142 22143 1 180.0000771 15.1670000 2
22141 22140 22142 22144 1 180.0000771 15.1670000 2
22138 22142 22140 22141 4 180.0000771 4.6024000 2
22135 22142 22144 22145 4 180.0000771 4.6024000 2
22140 22142 22144 22145 1 180.0000771 15.1670000 2
22143 22142 22144 22145 1 180.0000771 15.1670000 2
22135 22144 22142 22140 1 180.0000771 15.1670000 2
22135 22144 22142 22143 1 180.0000771 15.1670000 2
22140 22144 22142 22143 4 180.0000771 4.6024000 2
22146 22147 22148 22149 1 180.0000771 15.1670000 2
22146 22147 22148 22150 1 180.0000771 15.1670000 2
22149 22147 22148 22150 4 180.0000771 4.6024000 2
22146 22147 22156 22148 4 180.0000771 4.6024000 2
22146 22147 22156 22154 1 180.0000771 15.1670000 2
22146 22147 22156 22157 1 180.0000771 15.1670000 2
22148 22147 22156 22154 1 180.0000771 15.1670000 2
22148 22147 22156 22157 1 180.0000771 15.1670000 2
22149 22148 22147 22156 1 180.0000771 15.1670000 2
22150 22148 22147 22156 1 180.0000771 15.1670000 2
22147 22148 22150 22151 1 180.0000771 15.1670000 2
22147 22148 22150 22152 1 180.0000771 15.1670000 2
22149 22148 22150 22151 1 180.0000771 15.1670000 2
22149 22148 22150 22152 1 180.0000771 15.1670000 2
22148 22150 22152 22153 1 180.0000771 15.1670000 2
22148 22150 22152 22154 1 180.0000771 15.1670000 2
22151 22150 22152 22153 1 180.0000771 15.1670000 2
22151 22150 22152 22154 1 180.0000771 15.1670000 2
22148 22152 22150 22151 4 180.0000771 4.6024000 2
22150 22152 22154 22155 1 180.0000771 15.1670000 2
22150 22152 22154 22156 1 180.0000771 15.1670000 2
22153 22152 22154 22155 1 180.0000771 15.1670000 2
22153 22152 22154 22156 1 180.0000771 15.1670000 2
22150 22154 22152 22153 4 180.0000771 4.6024000 2
22147 22154 22156 22157 4 180.0000771 4.6024000 2
22152 22154 22156 22157 1 180.0000771 15.1670000 2
22155 22154 22156 22157 1 180.0000771 15.1670000 2
22147 22156 22154 22152 1 180.0000771 15.1670000 2
22147 22156 22154 22155 1 180.0000771 15.1670000 2
22152 22156 22154 22155 4 180.0000771 4.6024000 2
22158 22159 22160 22161 1 180.0000771 15.1670000 2
22158 22159 22160 22162 1 180.0000771 15.1670000 2
22161 22159 22160 22162 4 180.0000771 4.6024000 2
22158 22159 22168 22160 4 180.0000771 4.6024000 2
22158 22159 22168 22166 1 180.0000771 15.1670000 2
22158 22159 22168 22169 1 180.0000771 15.1670000 2
22160 22159 22168 22166 1 180.0000771 15.1670000 2
22160 22159 22168 22169 1 180.0000771 15.1670000 2
22161 22160 22159 22168 1 180.0000771 15.1670000 2
22162 22160 22159 22168 1 180.0000771 15.1670000 2
22159 22160 22162 22163 1 180.0000771 15.1670000 2
22159 22160 22162 22164 1 180.0000771 15.1670000 2
22161 22160 22162 22163 1 180.0000771 15.1670000 2
22161 22160 22162 22164 1 180.0000771 15.1670000 2
22160 22162 22164 22165 1 180.0000771 15.1670000 2
22160 22162 22164 22166 1 180.0000771 15.1670000 2
22163 22162 22164 22165 1 180.0000771 15.1670000 2
22163 22162 22164 22166 1 180.0000771 15.1670000 2
22160 22164 22162 22163 4 180.0000771 4.6024000 2
22162 22164 22166 22167 1 180.0000771 15.1670000 2
22162 22164 22166 22168 1 180.0000771 15.1670000 2
22165 22164 22166 22167 1 180.0000771 15.1670000 2
22165 22164 22166 22168 1 180.0000771 15.1670000 2
22162 22166 22164 22165 4 180.0000771 4.6024000 2
22159 22166 22168 22169 4 180.0000771 4.6024000 2
22164 22166 22168 22169 1 180.0000771 15.1670000 2
22167 22166 22168 22169 1 180.0000771 15.1670000 2
22159 22168 22166 22164 1 180.0000771 15.1670000 2
22159 22168 22166 22167 1 180.0000771 15.1670000 2
22164 22168 22166 22167 4 180.0000771 4.6024000 2
22170 22171 22172 22173 1 180.0000771 15.1670000 2
22170 22171 22172 22174 1 180.0000771 15.1670000 2
22173 22171 22172 22174 4 180.0000771 4.6024000 2
22170 22171 22180 22172 4 180.0000771 4.6024000 2
22170 22171 22180 22178 1 180.0000771 15.1670000 2
22170 22171 22180 22181 1 180.0000771 15.1670000 2
22172 22171 22180 22178 1 180.0000771 15.1670000 2
22172 22171 22180 22181 1 180.0000771 15.1670000 2
22173 22172 22171 22180 1 180.0000771 15.1670000 2
22174 22172 22171 22180 1 180.0000771 15.1670000 2
22171 22172 22174 22175 1 180.0000771 15.1670000 2
22171 22172 22174 22176 1 180.0000771 15.1670000 2
22173 22172 22174 22175 1 180.0000771 15.1670000 2
22173 22172 22174 22176 1 180.0000771 15.1670000 2
22172 22174 22176 22177 1 180.0000771 15.1670000 2
22172 22174 22176 22178 1 180.0000771 15.1670000 2
22175 22174 22176 22177 1 180.0000771 15.1670000 2
22175 22174 22176 22178 1 180.0000771 15.1670000 2
22172 22176 22174 22175 4 180.0000771 4.6024000 2
22174 22176 22178 22179 1 180.0000771 15.1670000 2
22174 22176 22178 22180 1 180.0000771 15.1670000 2
22177 22176 22178 22179 1 180.0000771 15.1670000 2
22177 22176 22178 22180 1 180.0000771 15.1670000 2
22174 22178 22176 22177 4 180.0000771 4.6024000 2
22171 22178 22180 22181 4 180.0000771 4.6024000 2
22176 22178 22180 22181 1 180.0000771 15.1670000 2
22179 22178 22180 22181 1 180.0000771 15.1670000 2
22171 22180 22178 22176 1 180.0000771 15.1670000 2
22171 22180 22178 22179 1 180.0000771 15.1670000 2
22176 22180 22178 22179 4 180.0000771 4.6024000 2
22182 22183 22184 22185 1 180.0000771 15.1670000 2
22182 22183 22184 22186 1 180.0000771 15.1670000 2
22185 22183 22184 22186 4 180.0000771 4.6024000 2
22182 22183 22192 22184 4 180.0000771 4.6024000 2
22182 22183 22192 22190 1 180.0000771 15.1670000 2
22182 22183 22192 22193 1 180.0000771 15.1670000 2
22184 22183 22192 22190 1 180.0000771 15.1670000 2
22184 22183 22192 22193 1 180.0000771 15.1670000 2
22185 22184 22183 22192 1 180.0000771 15.1670000 2
22186 22184 22183 22192 1 180.0000771 15.1670000 2
22183 22184 22186 22187 1 180.0000771 15.1670000 2
22183 22184 22186 22188 1 180.0000771 15.1670000 2
22185 22184 22186 22187 1 180.0000771 15.1670000 2
22185 22184 22186 22188 1 180.0000771 15.1670000 2
22184 22186 22188 22189 1 180.0000771 15.1670000 2
22184 22186 22188 22190 1 180.0000771 15.1670000 2
22187 22186 22188 22189 1 180.0000771 15.1670000 2
22187 22186 22188 22190 1 180.0000771 15.1670000 2
22184 22188 22186 22187 4 180.0000771 4.6024000 2
22186 22188 22190 22191 1 180.0000771 15.1670000 2
22186 22188 22190 22192 1 180.0000771 15.1670000 2
22189 22188 22190 22191 1 180.0000771 15.1670000 2
22189 22188 22190 22192 1 180.0000771 15.1670000 2
22186 22190 22188 22189 4 180.0000771 4.6024000 2
22183 22190 22192 22193 4 180.0000771 4.6024000 2
22188 22190 22192 22193 1 180.0000771 15.1670000 2
22191 22190 22192 22193 1 180.0000771 15.1670000 2
22183 22192 22190 22188 1 180.0000771 15.1670000 2
22183 22192 22190 22191 1 180.0000771 15.1670000 2
22188 22192 22190 22191 4 180.0000771 4.6024000 2
22194 22195 22196 22197 1 180.0000771 15.1670000 2
22194 22195 22196 22198 1 180.0000771 15.1670000 2
22197 22195 22196 22198 4 180.0000771 4.6024000 2
22194 22195 22204 22196 4 180.0000771 4.6024000 2
22194 22195 22204 22202 1 180.0000771 15.1670000 2
22194 22195 22204 22205 1 180.0000771 15.1670000 2
22196 22195 22204 22202 1 180.0000771 15.1670000 2
22196 22195 22204 22205 1 180.0000771 15.1670000 2
22197 22196 22195 22204 1 180.0000771 15.1670000 2
22198 22196 22195 22204 1 180.0000771 15.1670000 2
22195 22196 22198 22199 1 180.0000771 15.1670000 2
22195 22196 22198 22200 1 180.0000771 15.1670000 2
22197 22196 22198 22199 1 180.0000771 15.1670000 2
22197 22196 22198 22200 1 180.0000771 15.1670000 2
22196 22198 22200 22201 1 180.0000771 15.1670000 2
22196 22198 22200 22202 1 180.0000771 15.1670000 2
22199 22198 22200 22201 1 180.0000771 15.1670000 2
22199 22198 22200 22202 1 180.0000771 15.1670000 2
22196 22200 22198 22199 4 180.0000771 4.6024000 2
22198 22200 22202 22203 1 180.0000771 15.1670000 2
22198 22200 22202 22204 1 180.0000771 15.1670000 2
22201 22200 22202 22203 1 180.0000771 15.1670000 2
22201 22200 22202 22204 1 180.0000771 15.1670000 2
22198 22202 22200 22201 4 180.0000771 4.6024000 2
22195 22202 22204 22205 4 180.0000771 4.6024000 2
22200 22202 22204 22205 1 180.0000771 15.1670000 2
22203 22202 22204 22205 1 180.0000771 15.1670000 2
22195 22204 22202 22200 1 180.0000771 15.1670000 2
22195 22204 22202 22203 1 180.0000771 15.1670000 2
22200 22204 22202 22203 4 180.0000771 4.6024000 2
22206 22207 22208 22209 1 180.0000771 15.1670000 2
22206 22207 22208 22210 1 180.0000771 15.1670000 2
22209 22207 22208 22210 4 180.0000771 4.6024000 2
22206 22207 22216 22208 4 180.0000771 4.6024000 2
22206 22207 22216 22214 1 180.0000771 15.1670000 2
22206 22207 22216 22217 1 180.0000771 15.1670000 2
22208 22207 22216 22214 1 180.0000771 15.1670000 2
22208 22207 22216 22217 1 180.0000771 15.1670000 2
22209 22208 22207 22216 1 180.0000771 15.1670000 2
22210 22208 22207 22216 1 180.0000771 15.1670000 2
22207 22208 22210 22211 1 180.0000771 15.1670000 2
22207 22208 22210 22212 1 180.0000771 15.1670000 2
22209 22208 22210 22211 1 180.0000771 15.1670000 2
22209 22208 22210 22212 1 180.0000771 15.1670000 2
22208 22210 22212 22213 1 180.0000771 15.1670000 2
22208 22210 22212 22214 1 180.0000771 15.1670000 2
22211 22210 22212 22213 1 180.0000771 15.1670000 2
22211 22210 22212 22214 1 180.0000771 15.1670000 2
22208 22212 22210 22211 4 180.0000771 4.6024000 2
22210 22212 22214 22215 1 180.0000771 15.1670000 2
22210 22212 22214 22216 1 180.0000771 15.1670000 2
22213 22212 22214 22215 1 180.0000771 15.1670000 2
22213 22212 22214 22216 1 180.0000771 15.1670000 2
22210 22214 22212 22213 4 180.0000771 4.6024000 2
22207 22214 22216 22217 4 180.0000771 4.6024000 2
22212 22214 22216 22217 1 180.0000771 15.1670000 2
22215 22214 22216 22217 1 180.0000771 15.1670000 2
22207 22216 22214 22212 1 180.0000771 15.1670000 2
22207 22216 22214 22215 1 180.0000771 15.1670000 2
22212 22216 22214 22215 4 180.0000771 4.6024000 2
22218 22219 22220 22221 1 180.0000771 15.1670000 2
22218 22219 22220 22222 1 180.0000771 15.1670000 2
22221 22219 22220 22222 4 180.0000771 4.6024000 2
22218 22219 22228 22220 4 180.0000771 4.6024000 2
22218 22219 22228 22226 1 180.0000771 15.1670000 2
22218 22219 22228 22229 1 180.0000771 15.1670000 2
22220 22219 22228 22226 1 180.0000771 15.1670000 2
22220 22219 22228 22229 1 180.0000771 15.1670000 2
22221 22220 22219 22228 1 180.0000771 15.1670000 2
22222 22220 22219 22228 1 180.0000771 15.1670000 2
22219 22220 22222 22223 1 180.0000771 15.1670000 2
22219 22220 22222 22224 1 180.0000771 15.1670000 2
22221 22220 22222 22223 1 180.0000771 15.1670000 2
22221 22220 22222 22224 1 180.0000771 15.1670000 2
22220 22222 22224 22225 1 180.0000771 15.1670000 2
22220 22222 22224 22226 1 180.0000771 15.1670000 2
22223 22222 22224 22225 1 180.0000771 15.1670000 2
22223 22222 22224 22226 1 180.0000771 15.1670000 2
22220 22224 22222 22223 4 180.0000771 4.6024000 2
22222 22224 22226 22227 1 180.0000771 15.1670000 2
22222 22224 22226 22228 1 180.0000771 15.1670000 2
22225 22224 22226 22227 1 180.0000771 15.1670000 2
22225 22224 22226 22228 1 180.0000771 15.1670000 2
22222 22226 22224 22225 4 180.0000771 4.6024000 2
22219 22226 22228 22229 4 180.0000771 4.6024000 2
22224 22226 22228 22229 1 180.0000771 15.1670000 2
22227 22226 22228 22229 1 180.0000771 15.1670000 2
22219 22228 22226 22224 1 180.0000771 15.1670000 2
22219 22228 22226 22227 1 180.0000771 15.1670000 2
22224 22228 22226 22227 4 180.0000771 4.6024000 2
22230 22231 22232 22233 1 180.0000771 15.1670000 2
22230 22231 22232 22234 1 180.0000771 15.1670000 2
22233 22231 22232 22234 4 180.0000771 4.6024000 2
22230 22231 22240 22232 4 180.0000771 4.6024000 2
22230 22231 22240 22238 1 180.0000771 15.1670000 2
22230 22231 22240 22241 1 180.0000771 15.1670000 2
22232 22231 22240 22238 1 180.0000771 15.1670000 2
22232 22231 22240 22241 1 180.0000771 15.1670000 2
22233 22232 22231 22240 1 180.0000771 15.1670000 2
22234 22232 22231 22240 1 180.0000771 15.1670000 2
22231 22232 22234 22235 1 180.0000771 15.1670000 2
22231 22232 22234 22236 1 180.0000771 15.1670000 2
22233 22232 22234 22235 1 180.0000771 15.1670000 2
22233 22232 22234 22236 1 180.0000771 15.1670000 2
22232 22234 22236 22237 1 180.0000771 15.1670000 2
22232 22234 22236 22238 1 180.0000771 15.1670000 2
22235 22234 22236 22237 1 180.0000771 15.1670000 2
22235 22234 22236 22238 1 180.0000771 15.1670000 2
22232 22236 22234 22235 4 180.0000771 4.6024000 2
22234 22236 22238 22239 1 180.0000771 15.1670000 2
22234 22236 22238 22240 1 180.0000771 15.1670000 2
22237 22236 22238 22239 1 180.0000771 15.1670000 2
22237 22236 22238 22240 1 180.0000771 15.1670000 2
22234 22238 22236 22237 4 180.0000771 4.6024000 2
22231 22238 22240 22241 4 180.0000771 4.6024000 2
22236 22238 22240 22241 1 180.0000771 15.1670000 2
22239 22238 22240 22241 1 180.0000771 15.1670000 2
22231 22240 22238 22236 1 180.0000771 15.1670000 2
22231 22240 22238 22239 1 180.0000771 15.1670000 2
22236 22240 22238 22239 4 180.0000771 4.6024000 2
22242 22243 22244 22245 1 180.0000771 15.1670000 2
22242 22243 22244 22246 1 180.0000771 15.1670000 2
22245 22243 22244 22246 4 180.0000771 4.6024000 2
22242 22243 22252 22244 4 180.0000771 4.6024000 2
22242 22243 22252 22250 1 180.0000771 15.1670000 2
22242 22243 22252 22253 1 180.0000771 15.1670000 2
22244 22243 22252 22250 1 180.0000771 15.1670000 2
22244 22243 22252 22253 1 180.0000771 15.1670000 2
22245 22244 22243 22252 1 180.0000771 15.1670000 2
22246 22244 22243 22252 1 180.0000771 15.1670000 2
22243 22244 22246 22247 1 180.0000771 15.1670000 2
22243 22244 22246 22248 1 180.0000771 15.1670000 2
22245 22244 22246 22247 1 180.0000771 15.1670000 2
22245 22244 22246 22248 1 180.0000771 15.1670000 2
22244 22246 22248 22249 1 180.0000771 15.1670000 2
22244 22246 22248 22250 1 180.0000771 15.1670000 2
22247 22246 22248 22249 1 180.0000771 15.1670000 2
22247 22246 22248 22250 1 180.0000771 15.1670000 2
22244 22248 22246 22247 4 180.0000771 4.6024000 2
22246 22248 22250 22251 1 180.0000771 15.1670000 2
22246 22248 22250 22252 1 180.0000771 15.1670000 2
22249 22248 22250 22251 1 180.0000771 15.1670000 2
22249 22248 22250 22252 1 180.0000771 15.1670000 2
22246 22250 22248 22249 4 180.0000771 4.6024000 2
22243 22250 22252 22253 4 180.0000771 4.6024000 2
22248 22250 22252 22253 1 180.0000771 15.1670000 2
22251 22250 22252 22253 1 180.0000771 15.1670000 2
22243 22252 22250 22248 1 180.0000771 15.1670000 2
22243 22252 22250 22251 1 180.0000771 15.1670000 2
22248 22252 22250 22251 4 180.0000771 4.6024000 2
22254 22255 22256 22257 1 180.0000771 15.1670000 2
22254 22255 22256 22258 1 180.0000771 15.1670000 2
22257 22255 22256 22258 4 180.0000771 4.6024000 2
22254 22255 22264 22256 4 180.0000771 4.6024000 2
22254 22255 22264 22262 1 180.0000771 15.1670000 2
22254 22255 22264 22265 1 180.0000771 15.1670000 2
22256 22255 22264 22262 1 180.0000771 15.1670000 2
22256 22255 22264 22265 1 180.0000771 15.1670000 2
22257 22256 22255 22264 1 180.0000771 15.1670000 2
22258 22256 22255 22264 1 180.0000771 15.1670000 2
22255 22256 22258 22259 1 180.0000771 15.1670000 2
22255 22256 22258 22260 1 180.0000771 15.1670000 2
22257 22256 22258 22259 1 180.0000771 15.1670000 2
22257 22256 22258 22260 1 180.0000771 15.1670000 2
22256 22258 22260 22261 1 180.0000771 15.1670000 2
22256 22258 22260 22262 1 180.0000771 15.1670000 2
22259 22258 22260 22261 1 180.0000771 15.1670000 2
22259 22258 22260 22262 1 180.0000771 15.1670000 2
22256 22260 22258 22259 4 180.0000771 4.6024000 2
22258 22260 22262 22263 1 180.0000771 15.1670000 2
22258 22260 22262 22264 1 180.0000771 15.1670000 2
22261 22260 22262 22263 1 180.0000771 15.1670000 2
22261 22260 22262 22264 1 180.0000771 15.1670000 2
22258 22262 22260 22261 4 180.0000771 4.6024000 2
22255 22262 22264 22265 4 180.0000771 4.6024000 2
22260 22262 22264 22265 1 180.0000771 15.1670000 2
22263 22262 22264 22265 1 180.0000771 15.1670000 2
22255 22264 22262 22260 1 180.0000771 15.1670000 2
22255 22264 22262 22263 1 180.0000771 15.1670000 2
22260 22264 22262 22263 4 180.0000771 4.6024000 2
22266 22267 22268 22269 1 180.0000771 15.1670000 2
22266 22267 22268 22270 1 180.0000771 15.1670000 2
22269 22267 22268 22270 4 180.0000771 4.6024000 2
22266 22267 22276 22268 4 180.0000771 4.6024000 2
22266 22267 22276 22274 1 180.0000771 15.1670000 2
22266 22267 22276 22277 1 180.0000771 15.1670000 2
22268 22267 22276 22274 1 180.0000771 15.1670000 2
22268 22267 22276 22277 1 180.0000771 15.1670000 2
22269 22268 22267 22276 1 180.0000771 15.1670000 2
22270 22268 22267 22276 1 180.0000771 15.1670000 2
22267 22268 22270 22271 1 180.0000771 15.1670000 2
22267 22268 22270 22272 1 180.0000771 15.1670000 2
22269 22268 22270 22271 1 180.0000771 15.1670000 2
22269 22268 22270 22272 1 180.0000771 15.1670000 2
22268 22270 22272 22273 1 180.0000771 15.1670000 2
22268 22270 22272 22274 1 180.0000771 15.1670000 2
22271 22270 22272 22273 1 180.0000771 15.1670000 2
22271 22270 22272 22274 1 180.0000771 15.1670000 2
22268 22272 22270 22271 4 180.0000771 4.6024000 2
22270 22272 22274 22275 1 180.0000771 15.1670000 2
22270 22272 22274 22276 1 180.0000771 15.1670000 2
22273 22272 22274 22275 1 180.0000771 15.1670000 2
22273 22272 22274 22276 1 180.0000771 15.1670000 2
22270 22274 22272 22273 4 180.0000771 4.6024000 2
22267 22274 22276 22277 4 180.0000771 4.6024000 2
22272 22274 22276 22277 1 180.0000771 15.1670000 2
22275 22274 22276 22277 1 180.0000771 15.1670000 2
22267 22276 22274 22272 1 180.0000771 15.1670000 2
22267 22276 22274 22275 1 180.0000771 15.1670000 2
22272 22276 22274 22275 4 180.0000771 4.6024000 2
22278 22279 22280 22281 1 180.0000771 15.1670000 2
22278 22279 22280 22282 1 180.0000771 15.1670000 2
22281 22279 22280 22282 4 180.0000771 4.6024000 2
22278 22279 22288 22280 4 180.0000771 4.6024000 2
22278 22279 22288 22286 1 180.0000771 15.1670000 2
22278 22279 22288 22289 1 180.0000771 15.1670000 2
22280 22279 22288 22286 1 180.0000771 15.1670000 2
22280 22279 22288 22289 1 180.0000771 15.1670000 2
22281 22280 22279 22288 1 180.0000771 15.1670000 2
22282 22280 22279 22288 1 180.0000771 15.1670000 2
22279 22280 22282 22283 1 180.0000771 15.1670000 2
22279 22280 22282 22284 1 180.0000771 15.1670000 2
22281 22280 22282 22283 1 180.0000771 15.1670000 2
22281 22280 22282 22284 1 180.0000771 15.1670000 2
22280 22282 22284 22285 1 180.0000771 15.1670000 2
22280 22282 22284 22286 1 180.0000771 15.1670000 2
22283 22282 22284 22285 1 180.0000771 15.1670000 2
22283 22282 22284 22286 1 180.0000771 15.1670000 2
22280 22284 22282 22283 4 180.0000771 4.6024000 2
22282 22284 22286 22287 1 180.0000771 15.1670000 2
22282 22284 22286 22288 1 180.0000771 15.1670000 2
22285 22284 22286 22287 1 180.0000771 15.1670000 2
22285 22284 22286 22288 1 180.0000771 15.1670000 2
22282 22286 22284 22285 4 180.0000771 4.6024000 2
22279 22286 22288 22289 4 180.0000771 4.6024000 2
22284 22286 22288 22289 1 180.0000771 15.1670000 2
22287 22286 22288 22289 1 180.0000771 15.1670000 2
22279 22288 22286 22284 1 180.0000771 15.1670000 2
22279 22288 22286 22287 1 180.0000771 15.1670000 2
22284 22288 22286 22287 4 180.0000771 4.6024000 2
22290 22291 22292 22293 1 180.0000771 15.1670000 2
22290 22291 22292 22294 1 180.0000771 15.1670000 2
22293 22291 22292 22294 4 180.0000771 4.6024000 2
22290 22291 22300 22292 4 180.0000771 4.6024000 2
22290 22291 22300 22298 1 180.0000771 15.1670000 2
22290 22291 22300 22301 1 180.0000771 15.1670000 2
22292 22291 22300 22298 1 180.0000771 15.1670000 2
22292 22291 22300 22301 1 180.0000771 15.1670000 2
22293 22292 22291 22300 1 180.0000771 15.1670000 2
22294 22292 22291 22300 1 180.0000771 15.1670000 2
22291 22292 22294 22295 1 180.0000771 15.1670000 2
22291 22292 22294 22296 1 180.0000771 15.1670000 2
22293 22292 22294 22295 1 180.0000771 15.1670000 2
22293 22292 22294 22296 1 180.0000771 15.1670000 2
22292 22294 22296 22297 1 180.0000771 15.1670000 2
22292 22294 22296 22298 1 180.0000771 15.1670000 2
22295 22294 22296 22297 1 180.0000771 15.1670000 2
22295 22294 22296 22298 1 180.0000771 15.1670000 2
22292 22296 22294 22295 4 180.0000771 4.6024000 2
22294 22296 22298 22299 1 180.0000771 15.1670000 2
22294 22296 22298 22300 1 180.0000771 15.1670000 2
22297 22296 22298 22299 1 180.0000771 15.1670000 2
22297 22296 22298 22300 1 180.0000771 15.1670000 2
22294 22298 22296 22297 4 180.0000771 4.6024000 2
22291 22298 22300 22301 4 180.0000771 4.6024000 2
22296 22298 22300 22301 1 180.0000771 15.1670000 2
22299 22298 22300 22301 1 180.0000771 15.1670000 2
22291 22300 22298 22296 1 180.0000771 15.1670000 2
22291 22300 22298 22299 1 180.0000771 15.1670000 2
22296 22300 22298 22299 4 180.0000771 4.6024000 2
22302 22303 22304 22305 1 180.0000771 15.1670000 2
22302 22303 22304 22306 1 180.0000771 15.1670000 2
22305 22303 22304 22306 4 180.0000771 4.6024000 2
22302 22303 22312 22304 4 180.0000771 4.6024000 2
22302 22303 22312 22310 1 180.0000771 15.1670000 2
22302 22303 22312 22313 1 180.0000771 15.1670000 2
22304 22303 22312 22310 1 180.0000771 15.1670000 2
22304 22303 22312 22313 1 180.0000771 15.1670000 2
22305 22304 22303 22312 1 180.0000771 15.1670000 2
22306 22304 22303 22312 1 180.0000771 15.1670000 2
22303 22304 22306 22307 1 180.0000771 15.1670000 2
22303 22304 22306 22308 1 180.0000771 15.1670000 2
22305 22304 22306 22307 1 180.0000771 15.1670000 2
22305 22304 22306 22308 1 180.0000771 15.1670000 2
22304 22306 22308 22309 1 180.0000771 15.1670000 2
22304 22306 22308 22310 1 180.0000771 15.1670000 2
22307 22306 22308 22309 1 180.0000771 15.1670000 2
22307 22306 22308 22310 1 180.0000771 15.1670000 2
22304 22308 22306 22307 4 180.0000771 4.6024000 2
22306 22308 22310 22311 1 180.0000771 15.1670000 2
22306 22308 22310 22312 1 180.0000771 15.1670000 2
22309 22308 22310 22311 1 180.0000771 15.1670000 2
22309 22308 22310 22312 1 180.0000771 15.1670000 2
22306 22310 22308 22309 4 180.0000771 4.6024000 2
22303 22310 22312 22313 4 180.0000771 4.6024000 2
22308 22310 22312 22313 1 180.0000771 15.1670000 2
22311 22310 22312 22313 1 180.0000771 15.1670000 2
22303 22312 22310 22308 1 180.0000771 15.1670000 2
22303 22312 22310 22311 1 180.0000771 15.1670000 2
22308 22312 22310 22311 4 180.0000771 4.6024000 2
22314 22315 22316 22317 1 180.0000771 15.1670000 2
22314 22315 22316 22318 1 180.0000771 15.1670000 2
22317 22315 22316 22318 4 180.0000771 4.6024000 2
22314 22315 22324 22316 4 180.0000771 4.6024000 2
22314 22315 22324 22322 1 180.0000771 15.1670000 2
22314 22315 22324 22325 1 180.0000771 15.1670000 2
22316 22315 22324 22322 1 180.0000771 15.1670000 2
22316 22315 22324 22325 1 180.0000771 15.1670000 2
22317 22316 22315 22324 1 180.0000771 15.1670000 2
22318 22316 22315 22324 1 180.0000771 15.1670000 2
22315 22316 22318 22319 1 180.0000771 15.1670000 2
22315 22316 22318 22320 1 180.0000771 15.1670000 2
22317 22316 22318 22319 1 180.0000771 15.1670000 2
22317 22316 22318 22320 1 180.0000771 15.1670000 2
22316 22318 22320 22321 1 180.0000771 15.1670000 2
22316 22318 22320 22322 1 180.0000771 15.1670000 2
22319 22318 22320 22321 1 180.0000771 15.1670000 2
22319 22318 22320 22322 1 180.0000771 15.1670000 2
22316 22320 22318 22319 4 180.0000771 4.6024000 2
22318 22320 22322 22323 1 180.0000771 15.1670000 2
22318 22320 22322 22324 1 180.0000771 15.1670000 2
22321 22320 22322 22323 1 180.0000771 15.1670000 2
22321 22320 22322 22324 1 180.0000771 15.1670000 2
22318 22322 22320 22321 4 180.0000771 4.6024000 2
22315 22322 22324 22325 4 180.0000771 4.6024000 2
22320 22322 22324 22325 1 180.0000771 15.1670000 2
22323 22322 22324 22325 1 180.0000771 15.1670000 2
22315 22324 22322 22320 1 180.0000771 15.1670000 2
22315 22324 22322 22323 1 180.0000771 15.1670000 2
22320 22324 22322 22323 4 180.0000771 4.6024000 2
22326 22327 22328 22329 1 180.0000771 15.1670000 2
22326 22327 22328 22330 1 180.0000771 15.1670000 2
22329 22327 22328 22330 4 180.0000771 4.6024000 2
22326 22327 22336 22328 4 180.0000771 4.6024000 2
22326 22327 22336 22334 1 180.0000771 15.1670000 2
22326 22327 22336 22337 1 180.0000771 15.1670000 2
22328 22327 22336 22334 1 180.0000771 15.1670000 2
22328 22327 22336 22337 1 180.0000771 15.1670000 2
22329 22328 22327 22336 1 180.0000771 15.1670000 2
22330 22328 22327 22336 1 180.0000771 15.1670000 2
22327 22328 22330 22331 1 180.0000771 15.1670000 2
22327 22328 22330 22332 1 180.0000771 15.1670000 2
22329 22328 22330 22331 1 180.0000771 15.1670000 2
22329 22328 22330 22332 1 180.0000771 15.1670000 2
22328 22330 22332 22333 1 180.0000771 15.1670000 2
22328 22330 22332 22334 1 180.0000771 15.1670000 2
22331 22330 22332 22333 1 180.0000771 15.1670000 2
22331 22330 22332 22334 1 180.0000771 15.1670000 2
22328 22332 22330 22331 4 180.0000771 4.6024000 2
22330 22332 22334 22335 1 180.0000771 15.1670000 2
22330 22332 22334 22336 1 180.0000771 15.1670000 2
22333 22332 22334 22335 1 180.0000771 15.1670000 2
22333 22332 22334 22336 1 180.0000771 15.1670000 2
22330 22334 22332 22333 4 180.0000771 4.6024000 2
22327 22334 22336 22337 4 180.0000771 4.6024000 2
22332 22334 22336 22337 1 180.0000771 15.1670000 2
22335 22334 22336 22337 1 180.0000771 15.1670000 2
22327 22336 22334 22332 1 180.0000771 15.1670000 2
22327 22336 22334 22335 1 180.0000771 15.1670000 2
22332 22336 22334 22335 4 180.0000771 4.6024000 2
22338 22339 22340 22341 1 180.0000771 15.1670000 2
22338 22339 22340 22342 1 180.0000771 15.1670000 2
22341 22339 22340 22342 4 180.0000771 4.6024000 2
22338 22339 22348 22340 4 180.0000771 4.6024000 2
22338 22339 22348 22346 1 180.0000771 15.1670000 2
22338 22339 22348 22349 1 180.0000771 15.1670000 2
22340 22339 22348 22346 1 180.0000771 15.1670000 2
22340 22339 22348 22349 1 180.0000771 15.1670000 2
22341 22340 22339 22348 1 180.0000771 15.1670000 2
22342 22340 22339 22348 1 180.0000771 15.1670000 2
22339 22340 22342 22343 1 180.0000771 15.1670000 2
22339 22340 22342 22344 1 180.0000771 15.1670000 2
22341 22340 22342 22343 1 180.0000771 15.1670000 2
22341 22340 22342 22344 1 180.0000771 15.1670000 2
22340 22342 22344 22345 1 180.0000771 15.1670000 2
22340 22342 22344 22346 1 180.0000771 15.1670000 2
22343 22342 22344 22345 1 180.0000771 15.1670000 2
22343 22342 22344 22346 1 180.0000771 15.1670000 2
22340 22344 22342 22343 4 180.0000771 4.6024000 2
22342 22344 22346 22347 1 180.0000771 15.1670000 2
22342 22344 22346 22348 1 180.0000771 15.1670000 2
22345 22344 22346 22347 1 180.0000771 15.1670000 2
22345 22344 22346 22348 1 180.0000771 15.1670000 2
22342 22346 22344 22345 4 180.0000771 4.6024000 2
22339 22346 22348 22349 4 180.0000771 4.6024000 2
22344 22346 22348 22349 1 180.0000771 15.1670000 2
22347 22346 22348 22349 1 180.0000771 15.1670000 2
22339 22348 22346 22344 1 180.0000771 15.1670000 2
22339 22348 22346 22347 1 180.0000771 15.1670000 2
22344 22348 22346 22347 4 180.0000771 4.6024000 2
22350 22351 22352 22353 1 180.0000771 15.1670000 2
22350 22351 22352 22354 1 180.0000771 15.1670000 2
22353 22351 22352 22354 4 180.0000771 4.6024000 2
22350 22351 22360 22352 4 180.0000771 4.6024000 2
22350 22351 22360 22358 1 180.0000771 15.1670000 2
22350 22351 22360 22361 1 180.0000771 15.1670000 2
22352 22351 22360 22358 1 180.0000771 15.1670000 2
22352 22351 22360 22361 1 180.0000771 15.1670000 2
22353 22352 22351 22360 1 180.0000771 15.1670000 2
22354 22352 22351 22360 1 180.0000771 15.1670000 2
22351 22352 22354 22355 1 180.0000771 15.1670000 2
22351 22352 22354 22356 1 180.0000771 15.1670000 2
22353 22352 22354 22355 1 180.0000771 15.1670000 2
22353 22352 22354 22356 1 180.0000771 15.1670000 2
22352 22354 22356 22357 1 180.0000771 15.1670000 2
22352 22354 22356 22358 1 180.0000771 15.1670000 2
22355 22354 22356 22357 1 180.0000771 15.1670000 2
22355 22354 22356 22358 1 180.0000771 15.1670000 2
22352 22356 22354 22355 4 180.0000771 4.6024000 2
22354 22356 22358 22359 1 180.0000771 15.1670000 2
22354 22356 22358 22360 1 180.0000771 15.1670000 2
22357 22356 22358 22359 1 180.0000771 15.1670000 2
22357 22356 22358 22360 1 180.0000771 15.1670000 2
22354 22358 22356 22357 4 180.0000771 4.6024000 2
22351 22358 22360 22361 4 180.0000771 4.6024000 2
22356 22358 22360 22361 1 180.0000771 15.1670000 2
22359 22358 22360 22361 1 180.0000771 15.1670000 2
22351 22360 22358 22356 1 180.0000771 15.1670000 2
22351 22360 22358 22359 1 180.0000771 15.1670000 2
22356 22360 22358 22359 4 180.0000771 4.6024000 2
22362 22363 22364 22365 1 180.0000771 15.1670000 2
22362 22363 22364 22366 1 180.0000771 15.1670000 2
22365 22363 22364 22366 4 180.0000771 4.6024000 2
22362 22363 22372 22364 4 180.0000771 4.6024000 2
22362 22363 22372 22370 1 180.0000771 15.1670000 2
22362 22363 22372 22373 1 180.0000771 15.1670000 2
22364 22363 22372 22370 1 180.0000771 15.1670000 2
22364 22363 22372 22373 1 180.0000771 15.1670000 2
22365 22364 22363 22372 1 180.0000771 15.1670000 2
22366 22364 22363 22372 1 180.0000771 15.1670000 2
22363 22364 22366 22367 1 180.0000771 15.1670000 2
22363 22364 22366 22368 1 180.0000771 15.1670000 2
22365 22364 22366 22367 1 180.0000771 15.1670000 2
22365 22364 22366 22368 1 180.0000771 15.1670000 2
22364 22366 22368 22369 1 180.0000771 15.1670000 2
22364 22366 22368 22370 1 180.0000771 15.1670000 2
22367 22366 22368 22369 1 180.0000771 15.1670000 2
22367 22366 22368 22370 1 180.0000771 15.1670000 2
22364 22368 22366 22367 4 180.0000771 4.6024000 2
22366 22368 22370 22371 1 180.0000771 15.1670000 2
22366 22368 22370 22372 1 180.0000771 15.1670000 2
22369 22368 22370 22371 1 180.0000771 15.1670000 2
22369 22368 22370 22372 1 180.0000771 15.1670000 2
22366 22370 22368 22369 4 180.0000771 4.6024000 2
22363 22370 22372 22373 4 180.0000771 4.6024000 2
22368 22370 22372 22373 1 180.0000771 15.1670000 2
22371 22370 22372 22373 1 180.0000771 15.1670000 2
22363 22372 22370 22368 1 180.0000771 15.1670000 2
22363 22372 22370 22371 1 180.0000771 15.1670000 2
22368 22372 22370 22371 4 180.0000771 4.6024000 2
22374 22375 22376 22377 1 180.0000771 15.1670000 2
22374 22375 22376 22378 1 180.0000771 15.1670000 2
22377 22375 22376 22378 4 180.0000771 4.6024000 2
22374 22375 22384 22376 4 180.0000771 4.6024000 2
22374 22375 22384 22382 1 180.0000771 15.1670000 2
22374 22375 22384 22385 1 180.0000771 15.1670000 2
22376 22375 22384 22382 1 180.0000771 15.1670000 2
22376 22375 22384 22385 1 180.0000771 15.1670000 2
22377 22376 22375 22384 1 180.0000771 15.1670000 2
22378 22376 22375 22384 1 180.0000771 15.1670000 2
22375 22376 22378 22379 1 180.0000771 15.1670000 2
22375 22376 22378 22380 1 180.0000771 15.1670000 2
22377 22376 22378 22379 1 180.0000771 15.1670000 2
22377 22376 22378 22380 1 180.0000771 15.1670000 2
22376 22378 22380 22381 1 180.0000771 15.1670000 2
22376 22378 22380 22382 1 180.0000771 15.1670000 2
22379 22378 22380 22381 1 180.0000771 15.1670000 2
22379 22378 22380 22382 1 180.0000771 15.1670000 2
22376 22380 22378 22379 4 180.0000771 4.6024000 2
22378 22380 22382 22383 1 180.0000771 15.1670000 2
22378 22380 22382 22384 1 180.0000771 15.1670000 2
22381 22380 22382 22383 1 180.0000771 15.1670000 2
22381 22380 22382 22384 1 180.0000771 15.1670000 2
22378 22382 22380 22381 4 180.0000771 4.6024000 2
22375 22382 22384 22385 4 180.0000771 4.6024000 2
22380 22382 22384 22385 1 180.0000771 15.1670000 2
22383 22382 22384 22385 1 180.0000771 15.1670000 2
22375 22384 22382 22380 1 180.0000771 15.1670000 2
22375 22384 22382 22383 1 180.0000771 15.1670000 2
22380 22384 22382 22383 4 180.0000771 4.6024000 2
22386 22387 22388 22389 1 180.0000771 15.1670000 2
22386 22387 22388 22390 1 180.0000771 15.1670000 2
22389 22387 22388 22390 4 180.0000771 4.6024000 2
22386 22387 22396 22388 4 180.0000771 4.6024000 2
22386 22387 22396 22394 1 180.0000771 15.1670000 2
22386 22387 22396 22397 1 180.0000771 15.1670000 2
22388 22387 22396 22394 1 180.0000771 15.1670000 2
22388 22387 22396 22397 1 180.0000771 15.1670000 2
22389 22388 22387 22396 1 180.0000771 15.1670000 2
22390 22388 22387 22396 1 180.0000771 15.1670000 2
22387 22388 22390 22391 1 180.0000771 15.1670000 2
22387 22388 22390 22392 1 180.0000771 15.1670000 2
22389 22388 22390 22391 1 180.0000771 15.1670000 2
22389 22388 22390 22392 1 180.0000771 15.1670000 2
22388 22390 22392 22393 1 180.0000771 15.1670000 2
22388 22390 22392 22394 1 180.0000771 15.1670000 2
22391 22390 22392 22393 1 180.0000771 15.1670000 2
22391 22390 22392 22394 1 180.0000771 15.1670000 2
22388 22392 22390 22391 4 180.0000771 4.6024000 2
22390 22392 22394 22395 1 180.0000771 15.1670000 2
22390 22392 22394 22396 1 180.0000771 15.1670000 2
22393 22392 22394 22395 1 180.0000771 15.1670000 2
22393 22392 22394 22396 1 180.0000771 15.1670000 2
22390 22394 22392 22393 4 180.0000771 4.6024000 2
22387 22394 22396 22397 4 180.0000771 4.6024000 2
22392 22394 22396 22397 1 180.0000771 15.1670000 2
22395 22394 22396 22397 1 180.0000771 15.1670000 2
22387 22396 22394 22392 1 180.0000771 15.1670000 2
22387 22396 22394 22395 1 180.0000771 15.1670000 2
22392 22396 22394 22395 4 180.0000771 4.6024000 2
22398 22399 22400 22401 1 180.0000771 15.1670000 2
22398 22399 22400 22402 1 180.0000771 15.1670000 2
22401 22399 22400 22402 4 180.0000771 4.6024000 2
22398 22399 22408 22400 4 180.0000771 4.6024000 2
22398 22399 22408 22406 1 180.0000771 15.1670000 2
22398 22399 22408 22409 1 180.0000771 15.1670000 2
22400 22399 22408 22406 1 180.0000771 15.1670000 2
22400 22399 22408 22409 1 180.0000771 15.1670000 2
22401 22400 22399 22408 1 180.0000771 15.1670000 2
22402 22400 22399 22408 1 180.0000771 15.1670000 2
22399 22400 22402 22403 1 180.0000771 15.1670000 2
22399 22400 22402 22404 1 180.0000771 15.1670000 2
22401 22400 22402 22403 1 180.0000771 15.1670000 2
22401 22400 22402 22404 1 180.0000771 15.1670000 2
22400 22402 22404 22405 1 180.0000771 15.1670000 2
22400 22402 22404 22406 1 180.0000771 15.1670000 2
22403 22402 22404 22405 1 180.0000771 15.1670000 2
22403 22402 22404 22406 1 180.0000771 15.1670000 2
22400 22404 22402 22403 4 180.0000771 4.6024000 2
22402 22404 22406 22407 1 180.0000771 15.1670000 2
22402 22404 22406 22408 1 180.0000771 15.1670000 2
22405 22404 22406 22407 1 180.0000771 15.1670000 2
22405 22404 22406 22408 1 180.0000771 15.1670000 2
22402 22406 22404 22405 4 180.0000771 4.6024000 2
22399 22406 22408 22409 4 180.0000771 4.6024000 2
22404 22406 22408 22409 1 180.0000771 15.1670000 2
22407 22406 22408 22409 1 180.0000771 15.1670000 2
22399 22408 22406 22404 1 180.0000771 15.1670000 2
22399 22408 22406 22407 1 180.0000771 15.1670000 2
22404 22408 22406 22407 4 180.0000771 4.6024000 2
22410 22411 22412 22413 1 180.0000771 15.1670000 2
22410 22411 22412 22414 1 180.0000771 15.1670000 2
22413 22411 22412 22414 4 180.0000771 4.6024000 2
22410 22411 22420 22412 4 180.0000771 4.6024000 2
22410 22411 22420 22418 1 180.0000771 15.1670000 2
22410 22411 22420 22421 1 180.0000771 15.1670000 2
22412 22411 22420 22418 1 180.0000771 15.1670000 2
22412 22411 22420 22421 1 180.0000771 15.1670000 2
22413 22412 22411 22420 1 180.0000771 15.1670000 2
22414 22412 22411 22420 1 180.0000771 15.1670000 2
22411 22412 22414 22415 1 180.0000771 15.1670000 2
22411 22412 22414 22416 1 180.0000771 15.1670000 2
22413 22412 22414 22415 1 180.0000771 15.1670000 2
22413 22412 22414 22416 1 180.0000771 15.1670000 2
22412 22414 22416 22417 1 180.0000771 15.1670000 2
22412 22414 22416 22418 1 180.0000771 15.1670000 2
22415 22414 22416 22417 1 180.0000771 15.1670000 2
22415 22414 22416 22418 1 180.0000771 15.1670000 2
22412 22416 22414 22415 4 180.0000771 4.6024000 2
22414 22416 22418 22419 1 180.0000771 15.1670000 2
22414 22416 22418 22420 1 180.0000771 15.1670000 2
22417 22416 22418 22419 1 180.0000771 15.1670000 2
22417 22416 22418 22420 1 180.0000771 15.1670000 2
22414 22418 22416 22417 4 180.0000771 4.6024000 2
22411 22418 22420 22421 4 180.0000771 4.6024000 2
22416 22418 22420 22421 1 180.0000771 15.1670000 2
22419 22418 22420 22421 1 180.0000771 15.1670000 2
22411 22420 22418 22416 1 180.0000771 15.1670000 2
22411 22420 22418 22419 1 180.0000771 15.1670000 2
22416 22420 22418 22419 4 180.0000771 4.6024000 2
22422 22423 22424 22425 1 180.0000771 15.1670000 2
22422 22423 22424 22426 1 180.0000771 15.1670000 2
22425 22423 22424 22426 4 180.0000771 4.6024000 2
22422 22423 22432 22424 4 180.0000771 4.6024000 2
22422 22423 22432 22430 1 180.0000771 15.1670000 2
22422 22423 22432 22433 1 180.0000771 15.1670000 2
22424 22423 22432 22430 1 180.0000771 15.1670000 2
22424 22423 22432 22433 1 180.0000771 15.1670000 2
22425 22424 22423 22432 1 180.0000771 15.1670000 2
22426 22424 22423 22432 1 180.0000771 15.1670000 2
22423 22424 22426 22427 1 180.0000771 15.1670000 2
22423 22424 22426 22428 1 180.0000771 15.1670000 2
22425 22424 22426 22427 1 180.0000771 15.1670000 2
22425 22424 22426 22428 1 180.0000771 15.1670000 2
22424 22426 22428 22429 1 180.0000771 15.1670000 2
22424 22426 22428 22430 1 180.0000771 15.1670000 2
22427 22426 22428 22429 1 180.0000771 15.1670000 2
22427 22426 22428 22430 1 180.0000771 15.1670000 2
22424 22428 22426 22427 4 180.0000771 4.6024000 2
22426 22428 22430 22431 1 180.0000771 15.1670000 2
22426 22428 22430 22432 1 180.0000771 15.1670000 2
22429 22428 22430 22431 1 180.0000771 15.1670000 2
22429 22428 22430 22432 1 180.0000771 15.1670000 2
22426 22430 22428 22429 4 180.0000771 4.6024000 2
22423 22430 22432 22433 4 180.0000771 4.6024000 2
22428 22430 22432 22433 1 180.0000771 15.1670000 2
22431 22430 22432 22433 1 180.0000771 15.1670000 2
22423 22432 22430 22428 1 180.0000771 15.1670000 2
22423 22432 22430 22431 1 180.0000771 15.1670000 2
22428 22432 22430 22431 4 180.0000771 4.6024000 2
22434 22435 22436 22437 1 180.0000771 15.1670000 2
22434 22435 22436 22438 1 180.0000771 15.1670000 2
22437 22435 22436 22438 4 180.0000771 4.6024000 2
22434 22435 22444 22436 4 180.0000771 4.6024000 2
22434 22435 22444 22442 1 180.0000771 15.1670000 2
22434 22435 22444 22445 1 180.0000771 15.1670000 2
22436 22435 22444 22442 1 180.0000771 15.1670000 2
22436 22435 22444 22445 1 180.0000771 15.1670000 2
22437 22436 22435 22444 1 180.0000771 15.1670000 2
22438 22436 22435 22444 1 180.0000771 15.1670000 2
22435 22436 22438 22439 1 180.0000771 15.1670000 2
22435 22436 22438 22440 1 180.0000771 15.1670000 2
22437 22436 22438 22439 1 180.0000771 15.1670000 2
22437 22436 22438 22440 1 180.0000771 15.1670000 2
22436 22438 22440 22441 1 180.0000771 15.1670000 2
22436 22438 22440 22442 1 180.0000771 15.1670000 2
22439 22438 22440 22441 1 180.0000771 15.1670000 2
22439 22438 22440 22442 1 180.0000771 15.1670000 2
22436 22440 22438 22439 4 180.0000771 4.6024000 2
22438 22440 22442 22443 1 180.0000771 15.1670000 2
22438 22440 22442 22444 1 180.0000771 15.1670000 2
22441 22440 22442 22443 1 180.0000771 15.1670000 2
22441 22440 22442 22444 1 180.0000771 15.1670000 2
22438 22442 22440 22441 4 180.0000771 4.6024000 2
22435 22442 22444 22445 4 180.0000771 4.6024000 2
22440 22442 22444 22445 1 180.0000771 15.1670000 2
22443 22442 22444 22445 1 180.0000771 15.1670000 2
22435 22444 22442 22440 1 180.0000771 15.1670000 2
22435 22444 22442 22443 1 180.0000771 15.1670000 2
22440 22444 22442 22443 4 180.0000771 4.6024000 2
22446 22447 22448 22449 1 180.0000771 15.1670000 2
22446 22447 22448 22450 1 180.0000771 15.1670000 2
22449 22447 22448 22450 4 180.0000771 4.6024000 2
22446 22447 22456 22448 4 180.0000771 4.6024000 2
22446 22447 22456 22454 1 180.0000771 15.1670000 2
22446 22447 22456 22457 1 180.0000771 15.1670000 2
22448 22447 22456 22454 1 180.0000771 15.1670000 2
22448 22447 22456 22457 1 180.0000771 15.1670000 2
22449 22448 22447 22456 1 180.0000771 15.1670000 2
22450 22448 22447 22456 1 180.0000771 15.1670000 2
22447 22448 22450 22451 1 180.0000771 15.1670000 2
22447 22448 22450 22452 1 180.0000771 15.1670000 2
22449 22448 22450 22451 1 180.0000771 15.1670000 2
22449 22448 22450 22452 1 180.0000771 15.1670000 2
22448 22450 22452 22453 1 180.0000771 15.1670000 2
22448 22450 22452 22454 1 180.0000771 15.1670000 2
22451 22450 22452 22453 1 180.0000771 15.1670000 2
22451 22450 22452 22454 1 180.0000771 15.1670000 2
22448 22452 22450 22451 4 180.0000771 4.6024000 2
22450 22452 22454 22455 1 180.0000771 15.1670000 2
22450 22452 22454 22456 1 180.0000771 15.1670000 2
22453 22452 22454 22455 1 180.0000771 15.1670000 2
22453 22452 22454 22456 1 180.0000771 15.1670000 2
22450 22454 22452 22453 4 180.0000771 4.6024000 2
22447 22454 22456 22457 4 180.0000771 4.6024000 2
22452 22454 22456 22457 1 180.0000771 15.1670000 2
22455 22454 22456 22457 1 180.0000771 15.1670000 2
22447 22456 22454 22452 1 180.0000771 15.1670000 2
22447 22456 22454 22455 1 180.0000771 15.1670000 2
22452 22456 22454 22455 4 180.0000771 4.6024000 2
22458 22459 22460 22461 1 180.0000771 15.1670000 2
22458 22459 22460 22462 1 180.0000771 15.1670000 2
22461 22459 22460 22462 4 180.0000771 4.6024000 2
22458 22459 22468 22460 4 180.0000771 4.6024000 2
22458 22459 22468 22466 1 180.0000771 15.1670000 2
22458 22459 22468 22469 1 180.0000771 15.1670000 2
22460 22459 22468 22466 1 180.0000771 15.1670000 2
22460 22459 22468 22469 1 180.0000771 15.1670000 2
22461 22460 22459 22468 1 180.0000771 15.1670000 2
22462 22460 22459 22468 1 180.0000771 15.1670000 2
22459 22460 22462 22463 1 180.0000771 15.1670000 2
22459 22460 22462 22464 1 180.0000771 15.1670000 2
22461 22460 22462 22463 1 180.0000771 15.1670000 2
22461 22460 22462 22464 1 180.0000771 15.1670000 2
22460 22462 22464 22465 1 180.0000771 15.1670000 2
22460 22462 22464 22466 1 180.0000771 15.1670000 2
22463 22462 22464 22465 1 180.0000771 15.1670000 2
22463 22462 22464 22466 1 180.0000771 15.1670000 2
22460 22464 22462 22463 4 180.0000771 4.6024000 2
22462 22464 22466 22467 1 180.0000771 15.1670000 2
22462 22464 22466 22468 1 180.0000771 15.1670000 2
22465 22464 22466 22467 1 180.0000771 15.1670000 2
22465 22464 22466 22468 1 180.0000771 15.1670000 2
22462 22466 22464 22465 4 180.0000771 4.6024000 2
22459 22466 22468 22469 4 180.0000771 4.6024000 2
22464 22466 22468 22469 1 180.0000771 15.1670000 2
22467 22466 22468 22469 1 180.0000771 15.1670000 2
22459 22468 22466 22464 1 180.0000771 15.1670000 2
22459 22468 22466 22467 1 180.0000771 15.1670000 2
22464 22468 22466 22467 4 180.0000771 4.6024000 2
22470 22471 22472 22473 1 180.0000771 15.1670000 2
22470 22471 22472 22474 1 180.0000771 15.1670000 2
22473 22471 22472 22474 4 180.0000771 4.6024000 2
22470 22471 22480 22472 4 180.0000771 4.6024000 2
22470 22471 22480 22478 1 180.0000771 15.1670000 2
22470 22471 22480 22481 1 180.0000771 15.1670000 2
22472 22471 22480 22478 1 180.0000771 15.1670000 2
22472 22471 22480 22481 1 180.0000771 15.1670000 2
22473 22472 22471 22480 1 180.0000771 15.1670000 2
22474 22472 22471 22480 1 180.0000771 15.1670000 2
22471 22472 22474 22475 1 180.0000771 15.1670000 2
22471 22472 22474 22476 1 180.0000771 15.1670000 2
22473 22472 22474 22475 1 180.0000771 15.1670000 2
22473 22472 22474 22476 1 180.0000771 15.1670000 2
22472 22474 22476 22477 1 180.0000771 15.1670000 2
22472 22474 22476 22478 1 180.0000771 15.1670000 2
22475 22474 22476 22477 1 180.0000771 15.1670000 2
22475 22474 22476 22478 1 180.0000771 15.1670000 2
22472 22476 22474 22475 4 180.0000771 4.6024000 2
22474 22476 22478 22479 1 180.0000771 15.1670000 2
22474 22476 22478 22480 1 180.0000771 15.1670000 2
22477 22476 22478 22479 1 180.0000771 15.1670000 2
22477 22476 22478 22480 1 180.0000771 15.1670000 2
22474 22478 22476 22477 4 180.0000771 4.6024000 2
22471 22478 22480 22481 4 180.0000771 4.6024000 2
22476 22478 22480 22481 1 180.0000771 15.1670000 2
22479 22478 22480 22481 1 180.0000771 15.1670000 2
22471 22480 22478 22476 1 180.0000771 15.1670000 2
22471 22480 22478 22479 1 180.0000771 15.1670000 2
22476 22480 22478 22479 4 180.0000771 4.6024000 2
22482 22483 22484 22485 1 180.0000771 15.1670000 2
22482 22483 22484 22486 1 180.0000771 15.1670000 2
22485 22483 22484 22486 4 180.0000771 4.6024000 2
22482 22483 22492 22484 4 180.0000771 4.6024000 2
22482 22483 22492 22490 1 180.0000771 15.1670000 2
22482 22483 22492 22493 1 180.0000771 15.1670000 2
22484 22483 22492 22490 1 180.0000771 15.1670000 2
22484 22483 22492 22493 1 180.0000771 15.1670000 2
22485 22484 22483 22492 1 180.0000771 15.1670000 2
22486 22484 22483 22492 1 180.0000771 15.1670000 2
22483 22484 22486 22487 1 180.0000771 15.1670000 2
22483 22484 22486 22488 1 180.0000771 15.1670000 2
22485 22484 22486 22487 1 180.0000771 15.1670000 2
22485 22484 22486 22488 1 180.0000771 15.1670000 2
22484 22486 22488 22489 1 180.0000771 15.1670000 2
22484 22486 22488 22490 1 180.0000771 15.1670000 2
22487 22486 22488 22489 1 180.0000771 15.1670000 2
22487 22486 22488 22490 1 180.0000771 15.1670000 2
22484 22488 22486 22487 4 180.0000771 4.6024000 2
22486 22488 22490 22491 1 180.0000771 15.1670000 2
22486 22488 22490 22492 1 180.0000771 15.1670000 2
22489 22488 22490 22491 1 180.0000771 15.1670000 2
22489 22488 22490 22492 1 180.0000771 15.1670000 2
22486 22490 22488 22489 4 180.0000771 4.6024000 2
22483 22490 22492 22493 4 180.0000771 4.6024000 2
22488 22490 22492 22493 1 180.0000771 15.1670000 2
22491 22490 22492 22493 1 180.0000771 15.1670000 2
22483 22492 22490 22488 1 180.0000771 15.1670000 2
22483 22492 22490 22491 1 180.0000771 15.1670000 2
22488 22492 22490 22491 4 180.0000771 4.6024000 2
22494 22495 22496 22497 1 180.0000771 15.1670000 2
22494 22495 22496 22498 1 180.0000771 15.1670000 2
22497 22495 22496 22498 4 180.0000771 4.6024000 2
22494 22495 22504 22496 4 180.0000771 4.6024000 2
22494 22495 22504 22502 1 180.0000771 15.1670000 2
22494 22495 22504 22505 1 180.0000771 15.1670000 2
22496 22495 22504 22502 1 180.0000771 15.1670000 2
22496 22495 22504 22505 1 180.0000771 15.1670000 2
22497 22496 22495 22504 1 180.0000771 15.1670000 2
22498 22496 22495 22504 1 180.0000771 15.1670000 2
22495 22496 22498 22499 1 180.0000771 15.1670000 2
22495 22496 22498 22500 1 180.0000771 15.1670000 2
22497 22496 22498 22499 1 180.0000771 15.1670000 2
22497 22496 22498 22500 1 180.0000771 15.1670000 2
22496 22498 22500 22501 1 180.0000771 15.1670000 2
22496 22498 22500 22502 1 180.0000771 15.1670000 2
22499 22498 22500 22501 1 180.0000771 15.1670000 2
22499 22498 22500 22502 1 180.0000771 15.1670000 2
22496 22500 22498 22499 4 180.0000771 4.6024000 2
22498 22500 22502 22503 1 180.0000771 15.1670000 2
22498 22500 22502 22504 1 180.0000771 15.1670000 2
22501 22500 22502 22503 1 180.0000771 15.1670000 2
22501 22500 22502 22504 1 180.0000771 15.1670000 2
22498 22502 22500 22501 4 180.0000771 4.6024000 2
22495 22502 22504 22505 4 180.0000771 4.6024000 2
22500 22502 22504 22505 1 180.0000771 15.1670000 2
22503 22502 22504 22505 1 180.0000771 15.1670000 2
22495 22504 22502 22500 1 180.0000771 15.1670000 2
22495 22504 22502 22503 1 180.0000771 15.1670000 2
22500 22504 22502 22503 4 180.0000771 4.6024000 2
22506 22507 22508 22509 1 180.0000771 15.1670000 2
22506 22507 22508 22510 1 180.0000771 15.1670000 2
22509 22507 22508 22510 4 180.0000771 4.6024000 2
22506 22507 22516 22508 4 180.0000771 4.6024000 2
22506 22507 22516 22514 1 180.0000771 15.1670000 2
22506 22507 22516 22517 1 180.0000771 15.1670000 2
22508 22507 22516 22514 1 180.0000771 15.1670000 2
22508 22507 22516 22517 1 180.0000771 15.1670000 2
22509 22508 22507 22516 1 180.0000771 15.1670000 2
22510 22508 22507 22516 1 180.0000771 15.1670000 2
22507 22508 22510 22511 1 180.0000771 15.1670000 2
22507 22508 22510 22512 1 180.0000771 15.1670000 2
22509 22508 22510 22511 1 180.0000771 15.1670000 2
22509 22508 22510 22512 1 180.0000771 15.1670000 2
22508 22510 22512 22513 1 180.0000771 15.1670000 2
22508 22510 22512 22514 1 180.0000771 15.1670000 2
22511 22510 22512 22513 1 180.0000771 15.1670000 2
22511 22510 22512 22514 1 180.0000771 15.1670000 2
22508 22512 22510 22511 4 180.0000771 4.6024000 2
22510 22512 22514 22515 1 180.0000771 15.1670000 2
22510 22512 22514 22516 1 180.0000771 15.1670000 2
22513 22512 22514 22515 1 180.0000771 15.1670000 2
22513 22512 22514 22516 1 180.0000771 15.1670000 2
22510 22514 22512 22513 4 180.0000771 4.6024000 2
22507 22514 22516 22517 4 180.0000771 4.6024000 2
22512 22514 22516 22517 1 180.0000771 15.1670000 2
22515 22514 22516 22517 1 180.0000771 15.1670000 2
22507 22516 22514 22512 1 180.0000771 15.1670000 2
22507 22516 22514 22515 1 180.0000771 15.1670000 2
22512 22516 22514 22515 4 180.0000771 4.6024000 2
22518 22519 22520 22521 1 180.0000771 15.1670000 2
22518 22519 22520 22522 1 180.0000771 15.1670000 2
22521 22519 22520 22522 4 180.0000771 4.6024000 2
22518 22519 22528 22520 4 180.0000771 4.6024000 2
22518 22519 22528 22526 1 180.0000771 15.1670000 2
22518 22519 22528 22529 1 180.0000771 15.1670000 2
22520 22519 22528 22526 1 180.0000771 15.1670000 2
22520 22519 22528 22529 1 180.0000771 15.1670000 2
22521 22520 22519 22528 1 180.0000771 15.1670000 2
22522 22520 22519 22528 1 180.0000771 15.1670000 2
22519 22520 22522 22523 1 180.0000771 15.1670000 2
22519 22520 22522 22524 1 180.0000771 15.1670000 2
22521 22520 22522 22523 1 180.0000771 15.1670000 2
22521 22520 22522 22524 1 180.0000771 15.1670000 2
22520 22522 22524 22525 1 180.0000771 15.1670000 2
22520 22522 22524 22526 1 180.0000771 15.1670000 2
22523 22522 22524 22525 1 180.0000771 15.1670000 2
22523 22522 22524 22526 1 180.0000771 15.1670000 2
22520 22524 22522 22523 4 180.0000771 4.6024000 2
22522 22524 22526 22527 1 180.0000771 15.1670000 2
22522 22524 22526 22528 1 180.0000771 15.1670000 2
22525 22524 22526 22527 1 180.0000771 15.1670000 2
22525 22524 22526 22528 1 180.0000771 15.1670000 2
22522 22526 22524 22525 4 180.0000771 4.6024000 2
22519 22526 22528 22529 4 180.0000771 4.6024000 2
22524 22526 22528 22529 1 180.0000771 15.1670000 2
22527 22526 22528 22529 1 180.0000771 15.1670000 2
22519 22528 22526 22524 1 180.0000771 15.1670000 2
22519 22528 22526 22527 1 180.0000771 15.1670000 2
22524 22528 22526 22527 4 180.0000771 4.6024000 2
22530 22531 22532 22533 1 180.0000771 15.1670000 2
22530 22531 22532 22534 1 180.0000771 15.1670000 2
22533 22531 22532 22534 4 180.0000771 4.6024000 2
22530 22531 22540 22532 4 180.0000771 4.6024000 2
22530 22531 22540 22538 1 180.0000771 15.1670000 2
22530 22531 22540 22541 1 180.0000771 15.1670000 2
22532 22531 22540 22538 1 180.0000771 15.1670000 2
22532 22531 22540 22541 1 180.0000771 15.1670000 2
22533 22532 22531 22540 1 180.0000771 15.1670000 2
22534 22532 22531 22540 1 180.0000771 15.1670000 2
22531 22532 22534 22535 1 180.0000771 15.1670000 2
22531 22532 22534 22536 1 180.0000771 15.1670000 2
22533 22532 22534 22535 1 180.0000771 15.1670000 2
22533 22532 22534 22536 1 180.0000771 15.1670000 2
22532 22534 22536 22537 1 180.0000771 15.1670000 2
22532 22534 22536 22538 1 180.0000771 15.1670000 2
22535 22534 22536 22537 1 180.0000771 15.1670000 2
22535 22534 22536 22538 1 180.0000771 15.1670000 2
22532 22536 22534 22535 4 180.0000771 4.6024000 2
22534 22536 22538 22539 1 180.0000771 15.1670000 2
22534 22536 22538 22540 1 180.0000771 15.1670000 2
22537 22536 22538 22539 1 180.0000771 15.1670000 2
22537 22536 22538 22540 1 180.0000771 15.1670000 2
22534 22538 22536 22537 4 180.0000771 4.6024000 2
22531 22538 22540 22541 4 180.0000771 4.6024000 2
22536 22538 22540 22541 1 180.0000771 15.1670000 2
22539 22538 22540 22541 1 180.0000771 15.1670000 2
22531 22540 22538 22536 1 180.0000771 15.1670000 2
22531 22540 22538 22539 1 180.0000771 15.1670000 2
22536 22540 22538 22539 4 180.0000771 4.6024000 2
22542 22543 22544 22545 1 180.0000771 15.1670000 2
22542 22543 22544 22546 1 180.0000771 15.1670000 2
22545 22543 22544 22546 4 180.0000771 4.6024000 2
22542 22543 22552 22544 4 180.0000771 4.6024000 2
22542 22543 22552 22550 1 180.0000771 15.1670000 2
22542 22543 22552 22553 1 180.0000771 15.1670000 2
22544 22543 22552 22550 1 180.0000771 15.1670000 2
22544 22543 22552 22553 1 180.0000771 15.1670000 2
22545 22544 22543 22552 1 180.0000771 15.1670000 2
22546 22544 22543 22552 1 180.0000771 15.1670000 2
22543 22544 22546 22547 1 180.0000771 15.1670000 2
22543 22544 22546 22548 1 180.0000771 15.1670000 2
22545 22544 22546 22547 1 180.0000771 15.1670000 2
22545 22544 22546 22548 1 180.0000771 15.1670000 2
22544 22546 22548 22549 1 180.0000771 15.1670000 2
22544 22546 22548 22550 1 180.0000771 15.1670000 2
22547 22546 22548 22549 1 180.0000771 15.1670000 2
22547 22546 22548 22550 1 180.0000771 15.1670000 2
22544 22548 22546 22547 4 180.0000771 4.6024000 2
22546 22548 22550 22551 1 180.0000771 15.1670000 2
22546 22548 22550 22552 1 180.0000771 15.1670000 2
22549 22548 22550 22551 1 180.0000771 15.1670000 2
22549 22548 22550 22552 1 180.0000771 15.1670000 2
22546 22550 22548 22549 4 180.0000771 4.6024000 2
22543 22550 22552 22553 4 180.0000771 4.6024000 2
22548 22550 22552 22553 1 180.0000771 15.1670000 2
22551 22550 22552 22553 1 180.0000771 15.1670000 2
22543 22552 22550 22548 1 180.0000771 15.1670000 2
22543 22552 22550 22551 1 180.0000771 15.1670000 2
22548 22552 22550 22551 4 180.0000771 4.6024000 2
22554 22555 22556 22557 1 180.0000771 15.1670000 2
22554 22555 22556 22558 1 180.0000771 15.1670000 2
22557 22555 22556 22558 4 180.0000771 4.6024000 2
22554 22555 22564 22556 4 180.0000771 4.6024000 2
22554 22555 22564 22562 1 180.0000771 15.1670000 2
22554 22555 22564 22565 1 180.0000771 15.1670000 2
22556 22555 22564 22562 1 180.0000771 15.1670000 2
22556 22555 22564 22565 1 180.0000771 15.1670000 2
22557 22556 22555 22564 1 180.0000771 15.1670000 2
22558 22556 22555 22564 1 180.0000771 15.1670000 2
22555 22556 22558 22559 1 180.0000771 15.1670000 2
22555 22556 22558 22560 1 180.0000771 15.1670000 2
22557 22556 22558 22559 1 180.0000771 15.1670000 2
22557 22556 22558 22560 1 180.0000771 15.1670000 2
22556 22558 22560 22561 1 180.0000771 15.1670000 2
22556 22558 22560 22562 1 180.0000771 15.1670000 2
22559 22558 22560 22561 1 180.0000771 15.1670000 2
22559 22558 22560 22562 1 180.0000771 15.1670000 2
22556 22560 22558 22559 4 180.0000771 4.6024000 2
22558 22560 22562 22563 1 180.0000771 15.1670000 2
22558 22560 22562 22564 1 180.0000771 15.1670000 2
22561 22560 22562 22563 1 180.0000771 15.1670000 2
22561 22560 22562 22564 1 180.0000771 15.1670000 2
22558 22562 22560 22561 4 180.0000771 4.6024000 2
22555 22562 22564 22565 4 180.0000771 4.6024000 2
22560 22562 22564 22565 1 180.0000771 15.1670000 2
22563 22562 22564 22565 1 180.0000771 15.1670000 2
22555 22564 22562 22560 1 180.0000771 15.1670000 2
22555 22564 22562 22563 1 180.0000771 15.1670000 2
22560 22564 22562 22563 4 180.0000771 4.6024000 2
22566 22567 22568 22569 1 180.0000771 15.1670000 2
22566 22567 22568 22570 1 180.0000771 15.1670000 2
22569 22567 22568 22570 4 180.0000771 4.6024000 2
22566 22567 22576 22568 4 180.0000771 4.6024000 2
22566 22567 22576 22574 1 180.0000771 15.1670000 2
22566 22567 22576 22577 1 180.0000771 15.1670000 2
22568 22567 22576 22574 1 180.0000771 15.1670000 2
22568 22567 22576 22577 1 180.0000771 15.1670000 2
22569 22568 22567 22576 1 180.0000771 15.1670000 2
22570 22568 22567 22576 1 180.0000771 15.1670000 2
22567 22568 22570 22571 1 180.0000771 15.1670000 2
22567 22568 22570 22572 1 180.0000771 15.1670000 2
22569 22568 22570 22571 1 180.0000771 15.1670000 2
22569 22568 22570 22572 1 180.0000771 15.1670000 2
22568 22570 22572 22573 1 180.0000771 15.1670000 2
22568 22570 22572 22574 1 180.0000771 15.1670000 2
22571 22570 22572 22573 1 180.0000771 15.1670000 2
22571 22570 22572 22574 1 180.0000771 15.1670000 2
22568 22572 22570 22571 4 180.0000771 4.6024000 2
22570 22572 22574 22575 1 180.0000771 15.1670000 2
22570 22572 22574 22576 1 180.0000771 15.1670000 2
22573 22572 22574 22575 1 180.0000771 15.1670000 2
22573 22572 22574 22576 1 180.0000771 15.1670000 2
22570 22574 22572 22573 4 180.0000771 4.6024000 2
22567 22574 22576 22577 4 180.0000771 4.6024000 2
22572 22574 22576 22577 1 180.0000771 15.1670000 2
22575 22574 22576 22577 1 180.0000771 15.1670000 2
22567 22576 22574 22572 1 180.0000771 15.1670000 2
22567 22576 22574 22575 1 180.0000771 15.1670000 2
22572 22576 22574 22575 4 180.0000771 4.6024000 2
22578 22579 22580 22581 1 180.0000771 15.1670000 2
22578 22579 22580 22582 1 180.0000771 15.1670000 2
22581 22579 22580 22582 4 180.0000771 4.6024000 2
22578 22579 22588 22580 4 180.0000771 4.6024000 2
22578 22579 22588 22586 1 180.0000771 15.1670000 2
22578 22579 22588 22589 1 180.0000771 15.1670000 2
22580 22579 22588 22586 1 180.0000771 15.1670000 2
22580 22579 22588 22589 1 180.0000771 15.1670000 2
22581 22580 22579 22588 1 180.0000771 15.1670000 2
22582 22580 22579 22588 1 180.0000771 15.1670000 2
22579 22580 22582 22583 1 180.0000771 15.1670000 2
22579 22580 22582 22584 1 180.0000771 15.1670000 2
22581 22580 22582 22583 1 180.0000771 15.1670000 2
22581 22580 22582 22584 1 180.0000771 15.1670000 2
22580 22582 22584 22585 1 180.0000771 15.1670000 2
22580 22582 22584 22586 1 180.0000771 15.1670000 2
22583 22582 22584 22585 1 180.0000771 15.1670000 2
22583 22582 22584 22586 1 180.0000771 15.1670000 2
22580 22584 22582 22583 4 180.0000771 4.6024000 2
22582 22584 22586 22587 1 180.0000771 15.1670000 2
22582 22584 22586 22588 1 180.0000771 15.1670000 2
22585 22584 22586 22587 1 180.0000771 15.1670000 2
22585 22584 22586 22588 1 180.0000771 15.1670000 2
22582 22586 22584 22585 4 180.0000771 4.6024000 2
22579 22586 22588 22589 4 180.0000771 4.6024000 2
22584 22586 22588 22589 1 180.0000771 15.1670000 2
22587 22586 22588 22589 1 180.0000771 15.1670000 2
22579 22588 22586 22584 1 180.0000771 15.1670000 2
22579 22588 22586 22587 1 180.0000771 15.1670000 2
22584 22588 22586 22587 4 180.0000771 4.6024000 2
22590 22591 22592 22593 1 180.0000771 15.1670000 2
22590 22591 22592 22594 1 180.0000771 15.1670000 2
22593 22591 22592 22594 4 180.0000771 4.6024000 2
22590 22591 22600 22592 4 180.0000771 4.6024000 2
22590 22591 22600 22598 1 180.0000771 15.1670000 2
22590 22591 22600 22601 1 180.0000771 15.1670000 2
22592 22591 22600 22598 1 180.0000771 15.1670000 2
22592 22591 22600 22601 1 180.0000771 15.1670000 2
22593 22592 22591 22600 1 180.0000771 15.1670000 2
22594 22592 22591 22600 1 180.0000771 15.1670000 2
22591 22592 22594 22595 1 180.0000771 15.1670000 2
22591 22592 22594 22596 1 180.0000771 15.1670000 2
22593 22592 22594 22595 1 180.0000771 15.1670000 2
22593 22592 22594 22596 1 180.0000771 15.1670000 2
22592 22594 22596 22597 1 180.0000771 15.1670000 2
22592 22594 22596 22598 1 180.0000771 15.1670000 2
22595 22594 22596 22597 1 180.0000771 15.1670000 2
22595 22594 22596 22598 1 180.0000771 15.1670000 2
22592 22596 22594 22595 4 180.0000771 4.6024000 2
22594 22596 22598 22599 1 180.0000771 15.1670000 2
22594 22596 22598 22600 1 180.0000771 15.1670000 2
22597 22596 22598 22599 1 180.0000771 15.1670000 2
22597 22596 22598 22600 1 180.0000771 15.1670000 2
22594 22598 22596 22597 4 180.0000771 4.6024000 2
22591 22598 22600 22601 4 180.0000771 4.6024000 2
22596 22598 22600 22601 1 180.0000771 15.1670000 2
22599 22598 22600 22601 1 180.0000771 15.1670000 2
22591 22600 22598 22596 1 180.0000771 15.1670000 2
22591 22600 22598 22599 1 180.0000771 15.1670000 2
22596 22600 22598 22599 4 180.0000771 4.6024000 2
22602 22603 22604 22605 1 180.0000771 15.1670000 2
22602 22603 22604 22606 1 180.0000771 15.1670000 2
22605 22603 22604 22606 4 180.0000771 4.6024000 2
22602 22603 22612 22604 4 180.0000771 4.6024000 2
22602 22603 22612 22610 1 180.0000771 15.1670000 2
22602 22603 22612 22613 1 180.0000771 15.1670000 2
22604 22603 22612 22610 1 180.0000771 15.1670000 2
22604 22603 22612 22613 1 180.0000771 15.1670000 2
22605 22604 22603 22612 1 180.0000771 15.1670000 2
22606 22604 22603 22612 1 180.0000771 15.1670000 2
22603 22604 22606 22607 1 180.0000771 15.1670000 2
22603 22604 22606 22608 1 180.0000771 15.1670000 2
22605 22604 22606 22607 1 180.0000771 15.1670000 2
22605 22604 22606 22608 1 180.0000771 15.1670000 2
22604 22606 22608 22609 1 180.0000771 15.1670000 2
22604 22606 22608 22610 1 180.0000771 15.1670000 2
22607 22606 22608 22609 1 180.0000771 15.1670000 2
22607 22606 22608 22610 1 180.0000771 15.1670000 2
22604 22608 22606 22607 4 180.0000771 4.6024000 2
22606 22608 22610 22611 1 180.0000771 15.1670000 2
22606 22608 22610 22612 1 180.0000771 15.1670000 2
22609 22608 22610 22611 1 180.0000771 15.1670000 2
22609 22608 22610 22612 1 180.0000771 15.1670000 2
22606 22610 22608 22609 4 180.0000771 4.6024000 2
22603 22610 22612 22613 4 180.0000771 4.6024000 2
22608 22610 22612 22613 1 180.0000771 15.1670000 2
22611 22610 22612 22613 1 180.0000771 15.1670000 2
22603 22612 22610 22608 1 180.0000771 15.1670000 2
22603 22612 22610 22611 1 180.0000771 15.1670000 2
22608 22612 22610 22611 4 180.0000771 4.6024000 2
22614 22615 22616 22617 1 180.0000771 15.1670000 2
22614 22615 22616 22618 1 180.0000771 15.1670000 2
22617 22615 22616 22618 4 180.0000771 4.6024000 2
22614 22615 22624 22616 4 180.0000771 4.6024000 2
22614 22615 22624 22622 1 180.0000771 15.1670000 2
22614 22615 22624 22625 1 180.0000771 15.1670000 2
22616 22615 22624 22622 1 180.0000771 15.1670000 2
22616 22615 22624 22625 1 180.0000771 15.1670000 2
22617 22616 22615 22624 1 180.0000771 15.1670000 2
22618 22616 22615 22624 1 180.0000771 15.1670000 2
22615 22616 22618 22619 1 180.0000771 15.1670000 2
22615 22616 22618 22620 1 180.0000771 15.1670000 2
22617 22616 22618 22619 1 180.0000771 15.1670000 2
22617 22616 22618 22620 1 180.0000771 15.1670000 2
22616 22618 22620 22621 1 180.0000771 15.1670000 2
22616 22618 22620 22622 1 180.0000771 15.1670000 2
22619 22618 22620 22621 1 180.0000771 15.1670000 2
22619 22618 22620 22622 1 180.0000771 15.1670000 2
22616 22620 22618 22619 4 180.0000771 4.6024000 2
22618 22620 22622 22623 1 180.0000771 15.1670000 2
22618 22620 22622 22624 1 180.0000771 15.1670000 2
22621 22620 22622 22623 1 180.0000771 15.1670000 2
22621 22620 22622 22624 1 180.0000771 15.1670000 2
22618 22622 22620 22621 4 180.0000771 4.6024000 2
22615 22622 22624 22625 4 180.0000771 4.6024000 2
22620 22622 22624 22625 1 180.0000771 15.1670000 2
22623 22622 22624 22625 1 180.0000771 15.1670000 2
22615 22624 22622 22620 1 180.0000771 15.1670000 2
22615 22624 22622 22623 1 180.0000771 15.1670000 2
22620 22624 22622 22623 4 180.0000771 4.6024000 2
22626 22627 22628 22629 1 180.0000771 15.1670000 2
22626 22627 22628 22630 1 180.0000771 15.1670000 2
22629 22627 22628 22630 4 180.0000771 4.6024000 2
22626 22627 22636 22628 4 180.0000771 4.6024000 2
22626 22627 22636 22634 1 180.0000771 15.1670000 2
22626 22627 22636 22637 1 180.0000771 15.1670000 2
22628 22627 22636 22634 1 180.0000771 15.1670000 2
22628 22627 22636 22637 1 180.0000771 15.1670000 2
22629 22628 22627 22636 1 180.0000771 15.1670000 2
22630 22628 22627 22636 1 180.0000771 15.1670000 2
22627 22628 22630 22631 1 180.0000771 15.1670000 2
22627 22628 22630 22632 1 180.0000771 15.1670000 2
22629 22628 22630 22631 1 180.0000771 15.1670000 2
22629 22628 22630 22632 1 180.0000771 15.1670000 2
22628 22630 22632 22633 1 180.0000771 15.1670000 2
22628 22630 22632 22634 1 180.0000771 15.1670000 2
22631 22630 22632 22633 1 180.0000771 15.1670000 2
22631 22630 22632 22634 1 180.0000771 15.1670000 2
22628 22632 22630 22631 4 180.0000771 4.6024000 2
22630 22632 22634 22635 1 180.0000771 15.1670000 2
22630 22632 22634 22636 1 180.0000771 15.1670000 2
22633 22632 22634 22635 1 180.0000771 15.1670000 2
22633 22632 22634 22636 1 180.0000771 15.1670000 2
22630 22634 22632 22633 4 180.0000771 4.6024000 2
22627 22634 22636 22637 4 180.0000771 4.6024000 2
22632 22634 22636 22637 1 180.0000771 15.1670000 2
22635 22634 22636 22637 1 180.0000771 15.1670000 2
22627 22636 22634 22632 1 180.0000771 15.1670000 2
22627 22636 22634 22635 1 180.0000771 15.1670000 2
22632 22636 22634 22635 4 180.0000771 4.6024000 2
22638 22639 22640 22641 1 180.0000771 15.1670000 2
22638 22639 22640 22642 1 180.0000771 15.1670000 2
22641 22639 22640 22642 4 180.0000771 4.6024000 2
22638 22639 22648 22640 4 180.0000771 4.6024000 2
22638 22639 22648 22646 1 180.0000771 15.1670000 2
22638 22639 22648 22649 1 180.0000771 15.1670000 2
22640 22639 22648 22646 1 180.0000771 15.1670000 2
22640 22639 22648 22649 1 180.0000771 15.1670000 2
22641 22640 22639 22648 1 180.0000771 15.1670000 2
22642 22640 22639 22648 1 180.0000771 15.1670000 2
22639 22640 22642 22643 1 180.0000771 15.1670000 2
22639 22640 22642 22644 1 180.0000771 15.1670000 2
22641 22640 22642 22643 1 180.0000771 15.1670000 2
22641 22640 22642 22644 1 180.0000771 15.1670000 2
22640 22642 22644 22645 1 180.0000771 15.1670000 2
22640 22642 22644 22646 1 180.0000771 15.1670000 2
22643 22642 22644 22645 1 180.0000771 15.1670000 2
22643 22642 22644 22646 1 180.0000771 15.1670000 2
22640 22644 22642 22643 4 180.0000771 4.6024000 2
22642 22644 22646 22647 1 180.0000771 15.1670000 2
22642 22644 22646 22648 1 180.0000771 15.1670000 2
22645 22644 22646 22647 1 180.0000771 15.1670000 2
22645 22644 22646 22648 1 180.0000771 15.1670000 2
22642 22646 22644 22645 4 180.0000771 4.6024000 2
22639 22646 22648 22649 4 180.0000771 4.6024000 2
22644 22646 22648 22649 1 180.0000771 15.1670000 2
22647 22646 22648 22649 1 180.0000771 15.1670000 2
22639 22648 22646 22644 1 180.0000771 15.1670000 2
22639 22648 22646 22647 1 180.0000771 15.1670000 2
22644 22648 22646 22647 4 180.0000771 4.6024000 2
22650 22651 22652 22653 1 180.0000771 15.1670000 2
22650 22651 22652 22654 1 180.0000771 15.1670000 2
22653 22651 22652 22654 4 180.0000771 4.6024000 2
22650 22651 22660 22652 4 180.0000771 4.6024000 2
22650 22651 22660 22658 1 180.0000771 15.1670000 2
22650 22651 22660 22661 1 180.0000771 15.1670000 2
22652 22651 22660 22658 1 180.0000771 15.1670000 2
22652 22651 22660 22661 1 180.0000771 15.1670000 2
22653 22652 22651 22660 1 180.0000771 15.1670000 2
22654 22652 22651 22660 1 180.0000771 15.1670000 2
22651 22652 22654 22655 1 180.0000771 15.1670000 2
22651 22652 22654 22656 1 180.0000771 15.1670000 2
22653 22652 22654 22655 1 180.0000771 15.1670000 2
22653 22652 22654 22656 1 180.0000771 15.1670000 2
22652 22654 22656 22657 1 180.0000771 15.1670000 2
22652 22654 22656 22658 1 180.0000771 15.1670000 2
22655 22654 22656 22657 1 180.0000771 15.1670000 2
22655 22654 22656 22658 1 180.0000771 15.1670000 2
22652 22656 22654 22655 4 180.0000771 4.6024000 2
22654 22656 22658 22659 1 180.0000771 15.1670000 2
22654 22656 22658 22660 1 180.0000771 15.1670000 2
22657 22656 22658 22659 1 180.0000771 15.1670000 2
22657 22656 22658 22660 1 180.0000771 15.1670000 2
22654 22658 22656 22657 4 180.0000771 4.6024000 2
22651 22658 22660 22661 4 180.0000771 4.6024000 2
22656 22658 22660 22661 1 180.0000771 15.1670000 2
22659 22658 22660 22661 1 180.0000771 15.1670000 2
22651 22660 22658 22656 1 180.0000771 15.1670000 2
22651 22660 22658 22659 1 180.0000771 15.1670000 2
22656 22660 22658 22659 4 180.0000771 4.6024000 2
22662 22663 22664 22665 1 180.0000771 15.1670000 2
22662 22663 22664 22666 1 180.0000771 15.1670000 2
22665 22663 22664 22666 4 180.0000771 4.6024000 2
22662 22663 22672 22664 4 180.0000771 4.6024000 2
22662 22663 22672 22670 1 180.0000771 15.1670000 2
22662 22663 22672 22673 1 180.0000771 15.1670000 2
22664 22663 22672 22670 1 180.0000771 15.1670000 2
22664 22663 22672 22673 1 180.0000771 15.1670000 2
22665 22664 22663 22672 1 180.0000771 15.1670000 2
22666 22664 22663 22672 1 180.0000771 15.1670000 2
22663 22664 22666 22667 1 180.0000771 15.1670000 2
22663 22664 22666 22668 1 180.0000771 15.1670000 2
22665 22664 22666 22667 1 180.0000771 15.1670000 2
22665 22664 22666 22668 1 180.0000771 15.1670000 2
22664 22666 22668 22669 1 180.0000771 15.1670000 2
22664 22666 22668 22670 1 180.0000771 15.1670000 2
22667 22666 22668 22669 1 180.0000771 15.1670000 2
22667 22666 22668 22670 1 180.0000771 15.1670000 2
22664 22668 22666 22667 4 180.0000771 4.6024000 2
22666 22668 22670 22671 1 180.0000771 15.1670000 2
22666 22668 22670 22672 1 180.0000771 15.1670000 2
22669 22668 22670 22671 1 180.0000771 15.1670000 2
22669 22668 22670 22672 1 180.0000771 15.1670000 2
22666 22670 22668 22669 4 180.0000771 4.6024000 2
22663 22670 22672 22673 4 180.0000771 4.6024000 2
22668 22670 22672 22673 1 180.0000771 15.1670000 2
22671 22670 22672 22673 1 180.0000771 15.1670000 2
22663 22672 22670 22668 1 180.0000771 15.1670000 2
22663 22672 22670 22671 1 180.0000771 15.1670000 2
22668 22672 22670 22671 4 180.0000771 4.6024000 2
22674 22675 22676 22677 1 180.0000771 15.1670000 2
22674 22675 22676 22678 1 180.0000771 15.1670000 2
22677 22675 22676 22678 4 180.0000771 4.6024000 2
22674 22675 22684 22676 4 180.0000771 4.6024000 2
22674 22675 22684 22682 1 180.0000771 15.1670000 2
22674 22675 22684 22685 1 180.0000771 15.1670000 2
22676 22675 22684 22682 1 180.0000771 15.1670000 2
22676 22675 22684 22685 1 180.0000771 15.1670000 2
22677 22676 22675 22684 1 180.0000771 15.1670000 2
22678 22676 22675 22684 1 180.0000771 15.1670000 2
22675 22676 22678 22679 1 180.0000771 15.1670000 2
22675 22676 22678 22680 1 180.0000771 15.1670000 2
22677 22676 22678 22679 1 180.0000771 15.1670000 2
22677 22676 22678 22680 1 180.0000771 15.1670000 2
22676 22678 22680 22681 1 180.0000771 15.1670000 2
22676 22678 22680 22682 1 180.0000771 15.1670000 2
22679 22678 22680 22681 1 180.0000771 15.1670000 2
22679 22678 22680 22682 1 180.0000771 15.1670000 2
22676 22680 22678 22679 4 180.0000771 4.6024000 2
22678 22680 22682 22683 1 180.0000771 15.1670000 2
22678 22680 22682 22684 1 180.0000771 15.1670000 2
22681 22680 22682 22683 1 180.0000771 15.1670000 2
22681 22680 22682 22684 1 180.0000771 15.1670000 2
22678 22682 22680 22681 4 180.0000771 4.6024000 2
22675 22682 22684 22685 4 180.0000771 4.6024000 2
22680 22682 22684 22685 1 180.0000771 15.1670000 2
22683 22682 22684 22685 1 180.0000771 15.1670000 2
22675 22684 22682 22680 1 180.0000771 15.1670000 2
22675 22684 22682 22683 1 180.0000771 15.1670000 2
22680 22684 22682 22683 4 180.0000771 4.6024000 2
22686 22687 22688 22689 1 180.0000771 15.1670000 2
22686 22687 22688 22690 1 180.0000771 15.1670000 2
22689 22687 22688 22690 4 180.0000771 4.6024000 2
22686 22687 22696 22688 4 180.0000771 4.6024000 2
22686 22687 22696 22694 1 180.0000771 15.1670000 2
22686 22687 22696 22697 1 180.0000771 15.1670000 2
22688 22687 22696 22694 1 180.0000771 15.1670000 2
22688 22687 22696 22697 1 180.0000771 15.1670000 2
22689 22688 22687 22696 1 180.0000771 15.1670000 2
22690 22688 22687 22696 1 180.0000771 15.1670000 2
22687 22688 22690 22691 1 180.0000771 15.1670000 2
22687 22688 22690 22692 1 180.0000771 15.1670000 2
22689 22688 22690 22691 1 180.0000771 15.1670000 2
22689 22688 22690 22692 1 180.0000771 15.1670000 2
22688 22690 22692 22693 1 180.0000771 15.1670000 2
22688 22690 22692 22694 1 180.0000771 15.1670000 2
22691 22690 22692 22693 1 180.0000771 15.1670000 2
22691 22690 22692 22694 1 180.0000771 15.1670000 2
22688 22692 22690 22691 4 180.0000771 4.6024000 2
22690 22692 22694 22695 1 180.0000771 15.1670000 2
22690 22692 22694 22696 1 180.0000771 15.1670000 2
22693 22692 22694 22695 1 180.0000771 15.1670000 2
22693 22692 22694 22696 1 180.0000771 15.1670000 2
22690 22694 22692 22693 4 180.0000771 4.6024000 2
22687 22694 22696 22697 4 180.0000771 4.6024000 2
22692 22694 22696 22697 1 180.0000771 15.1670000 2
22695 22694 22696 22697 1 180.0000771 15.1670000 2
22687 22696 22694 22692 1 180.0000771 15.1670000 2
22687 22696 22694 22695 1 180.0000771 15.1670000 2
22692 22696 22694 22695 4 180.0000771 4.6024000 2
22698 22699 22700 22701 1 180.0000771 15.1670000 2
22698 22699 22700 22702 1 180.0000771 15.1670000 2
22701 22699 22700 22702 4 180.0000771 4.6024000 2
22698 22699 22708 22700 4 180.0000771 4.6024000 2
22698 22699 22708 22706 1 180.0000771 15.1670000 2
22698 22699 22708 22709 1 180.0000771 15.1670000 2
22700 22699 22708 22706 1 180.0000771 15.1670000 2
22700 22699 22708 22709 1 180.0000771 15.1670000 2
22701 22700 22699 22708 1 180.0000771 15.1670000 2
22702 22700 22699 22708 1 180.0000771 15.1670000 2
22699 22700 22702 22703 1 180.0000771 15.1670000 2
22699 22700 22702 22704 1 180.0000771 15.1670000 2
22701 22700 22702 22703 1 180.0000771 15.1670000 2
22701 22700 22702 22704 1 180.0000771 15.1670000 2
22700 22702 22704 22705 1 180.0000771 15.1670000 2
22700 22702 22704 22706 1 180.0000771 15.1670000 2
22703 22702 22704 22705 1 180.0000771 15.1670000 2
22703 22702 22704 22706 1 180.0000771 15.1670000 2
22700 22704 22702 22703 4 180.0000771 4.6024000 2
22702 22704 22706 22707 1 180.0000771 15.1670000 2
22702 22704 22706 22708 1 180.0000771 15.1670000 2
22705 22704 22706 22707 1 180.0000771 15.1670000 2
22705 22704 22706 22708 1 180.0000771 15.1670000 2
22702 22706 22704 22705 4 180.0000771 4.6024000 2
22699 22706 22708 22709 4 180.0000771 4.6024000 2
22704 22706 22708 22709 1 180.0000771 15.1670000 2
22707 22706 22708 22709 1 180.0000771 15.1670000 2
22699 22708 22706 22704 1 180.0000771 15.1670000 2
22699 22708 22706 22707 1 180.0000771 15.1670000 2
22704 22708 22706 22707 4 180.0000771 4.6024000 2
22710 22711 22712 22713 1 180.0000771 15.1670000 2
22710 22711 22712 22714 1 180.0000771 15.1670000 2
22713 22711 22712 22714 4 180.0000771 4.6024000 2
22710 22711 22720 22712 4 180.0000771 4.6024000 2
22710 22711 22720 22718 1 180.0000771 15.1670000 2
22710 22711 22720 22721 1 180.0000771 15.1670000 2
22712 22711 22720 22718 1 180.0000771 15.1670000 2
22712 22711 22720 22721 1 180.0000771 15.1670000 2
22713 22712 22711 22720 1 180.0000771 15.1670000 2
22714 22712 22711 22720 1 180.0000771 15.1670000 2
22711 22712 22714 22715 1 180.0000771 15.1670000 2
22711 22712 22714 22716 1 180.0000771 15.1670000 2
22713 22712 22714 22715 1 180.0000771 15.1670000 2
22713 22712 22714 22716 1 180.0000771 15.1670000 2
22712 22714 22716 22717 1 180.0000771 15.1670000 2
22712 22714 22716 22718 1 180.0000771 15.1670000 2
22715 22714 22716 22717 1 180.0000771 15.1670000 2
22715 22714 22716 22718 1 180.0000771 15.1670000 2
22712 22716 22714 22715 4 180.0000771 4.6024000 2
22714 22716 22718 22719 1 180.0000771 15.1670000 2
22714 22716 22718 22720 1 180.0000771 15.1670000 2
22717 22716 22718 22719 1 180.0000771 15.1670000 2
22717 22716 22718 22720 1 180.0000771 15.1670000 2
22714 22718 22716 22717 4 180.0000771 4.6024000 2
22711 22718 22720 22721 4 180.0000771 4.6024000 2
22716 22718 22720 22721 1 180.0000771 15.1670000 2
22719 22718 22720 22721 1 180.0000771 15.1670000 2
22711 22720 22718 22716 1 180.0000771 15.1670000 2
22711 22720 22718 22719 1 180.0000771 15.1670000 2
22716 22720 22718 22719 4 180.0000771 4.6024000 2
22722 22723 22724 22725 1 180.0000771 15.1670000 2
22722 22723 22724 22726 1 180.0000771 15.1670000 2
22725 22723 22724 22726 4 180.0000771 4.6024000 2
22722 22723 22732 22724 4 180.0000771 4.6024000 2
22722 22723 22732 22730 1 180.0000771 15.1670000 2
22722 22723 22732 22733 1 180.0000771 15.1670000 2
22724 22723 22732 22730 1 180.0000771 15.1670000 2
22724 22723 22732 22733 1 180.0000771 15.1670000 2
22725 22724 22723 22732 1 180.0000771 15.1670000 2
22726 22724 22723 22732 1 180.0000771 15.1670000 2
22723 22724 22726 22727 1 180.0000771 15.1670000 2
22723 22724 22726 22728 1 180.0000771 15.1670000 2
22725 22724 22726 22727 1 180.0000771 15.1670000 2
22725 22724 22726 22728 1 180.0000771 15.1670000 2
22724 22726 22728 22729 1 180.0000771 15.1670000 2
22724 22726 22728 22730 1 180.0000771 15.1670000 2
22727 22726 22728 22729 1 180.0000771 15.1670000 2
22727 22726 22728 22730 1 180.0000771 15.1670000 2
22724 22728 22726 22727 4 180.0000771 4.6024000 2
22726 22728 22730 22731 1 180.0000771 15.1670000 2
22726 22728 22730 22732 1 180.0000771 15.1670000 2
22729 22728 22730 22731 1 180.0000771 15.1670000 2
22729 22728 22730 22732 1 180.0000771 15.1670000 2
22726 22730 22728 22729 4 180.0000771 4.6024000 2
22723 22730 22732 22733 4 180.0000771 4.6024000 2
22728 22730 22732 22733 1 180.0000771 15.1670000 2
22731 22730 22732 22733 1 180.0000771 15.1670000 2
22723 22732 22730 22728 1 180.0000771 15.1670000 2
22723 22732 22730 22731 1 180.0000771 15.1670000 2
22728 22732 22730 22731 4 180.0000771 4.6024000 2
22734 22735 22736 22737 1 180.0000771 15.1670000 2
22734 22735 22736 22738 1 180.0000771 15.1670000 2
22737 22735 22736 22738 4 180.0000771 4.6024000 2
22734 22735 22744 22736 4 180.0000771 4.6024000 2
22734 22735 22744 22742 1 180.0000771 15.1670000 2
22734 22735 22744 22745 1 180.0000771 15.1670000 2
22736 22735 22744 22742 1 180.0000771 15.1670000 2
22736 22735 22744 22745 1 180.0000771 15.1670000 2
22737 22736 22735 22744 1 180.0000771 15.1670000 2
22738 22736 22735 22744 1 180.0000771 15.1670000 2
22735 22736 22738 22739 1 180.0000771 15.1670000 2
22735 22736 22738 22740 1 180.0000771 15.1670000 2
22737 22736 22738 22739 1 180.0000771 15.1670000 2
22737 22736 22738 22740 1 180.0000771 15.1670000 2
22736 22738 22740 22741 1 180.0000771 15.1670000 2
22736 22738 22740 22742 1 180.0000771 15.1670000 2
22739 22738 22740 22741 1 180.0000771 15.1670000 2
22739 22738 22740 22742 1 180.0000771 15.1670000 2
22736 22740 22738 22739 4 180.0000771 4.6024000 2
22738 22740 22742 22743 1 180.0000771 15.1670000 2
22738 22740 22742 22744 1 180.0000771 15.1670000 2
22741 22740 22742 22743 1 180.0000771 15.1670000 2
22741 22740 22742 22744 1 180.0000771 15.1670000 2
22738 22742 22740 22741 4 180.0000771 4.6024000 2
22735 22742 22744 22745 4 180.0000771 4.6024000 2
22740 22742 22744 22745 1 180.0000771 15.1670000 2
22743 22742 22744 22745 1 180.0000771 15.1670000 2
22735 22744 22742 22740 1 180.0000771 15.1670000 2
22735 22744 22742 22743 1 180.0000771 15.1670000 2
22740 22744 22742 22743 4 180.0000771 4.6024000 2
22746 22747 22748 22749 1 180.0000771 15.1670000 2
22746 22747 22748 22750 1 180.0000771 15.1670000 2
22749 22747 22748 22750 4 180.0000771 4.6024000 2
22746 22747 22756 22748 4 180.0000771 4.6024000 2
22746 22747 22756 22754 1 180.0000771 15.1670000 2
22746 22747 22756 22757 1 180.0000771 15.1670000 2
22748 22747 22756 22754 1 180.0000771 15.1670000 2
22748 22747 22756 22757 1 180.0000771 15.1670000 2
22749 22748 22747 22756 1 180.0000771 15.1670000 2
22750 22748 22747 22756 1 180.0000771 15.1670000 2
22747 22748 22750 22751 1 180.0000771 15.1670000 2
22747 22748 22750 22752 1 180.0000771 15.1670000 2
22749 22748 22750 22751 1 180.0000771 15.1670000 2
22749 22748 22750 22752 1 180.0000771 15.1670000 2
22748 22750 22752 22753 1 180.0000771 15.1670000 2
22748 22750 22752 22754 1 180.0000771 15.1670000 2
22751 22750 22752 22753 1 180.0000771 15.1670000 2
22751 22750 22752 22754 1 180.0000771 15.1670000 2
22748 22752 22750 22751 4 180.0000771 4.6024000 2
22750 22752 22754 22755 1 180.0000771 15.1670000 2
22750 22752 22754 22756 1 180.0000771 15.1670000 2
22753 22752 22754 22755 1 180.0000771 15.1670000 2
22753 22752 22754 22756 1 180.0000771 15.1670000 2
22750 22754 22752 22753 4 180.0000771 4.6024000 2
22747 22754 22756 22757 4 180.0000771 4.6024000 2
22752 22754 22756 22757 1 180.0000771 15.1670000 2
22755 22754 22756 22757 1 180.0000771 15.1670000 2
22747 22756 22754 22752 1 180.0000771 15.1670000 2
22747 22756 22754 22755 1 180.0000771 15.1670000 2
22752 22756 22754 22755 4 180.0000771 4.6024000 2
22758 22759 22760 22761 1 180.0000771 15.1670000 2
22758 22759 22760 22762 1 180.0000771 15.1670000 2
22761 22759 22760 22762 4 180.0000771 4.6024000 2
22758 22759 22768 22760 4 180.0000771 4.6024000 2
22758 22759 22768 22766 1 180.0000771 15.1670000 2
22758 22759 22768 22769 1 180.0000771 15.1670000 2
22760 22759 22768 22766 1 180.0000771 15.1670000 2
22760 22759 22768 22769 1 180.0000771 15.1670000 2
22761 22760 22759 22768 1 180.0000771 15.1670000 2
22762 22760 22759 22768 1 180.0000771 15.1670000 2
22759 22760 22762 22763 1 180.0000771 15.1670000 2
22759 22760 22762 22764 1 180.0000771 15.1670000 2
22761 22760 22762 22763 1 180.0000771 15.1670000 2
22761 22760 22762 22764 1 180.0000771 15.1670000 2
22760 22762 22764 22765 1 180.0000771 15.1670000 2
22760 22762 22764 22766 1 180.0000771 15.1670000 2
22763 22762 22764 22765 1 180.0000771 15.1670000 2
22763 22762 22764 22766 1 180.0000771 15.1670000 2
22760 22764 22762 22763 4 180.0000771 4.6024000 2
22762 22764 22766 22767 1 180.0000771 15.1670000 2
22762 22764 22766 22768 1 180.0000771 15.1670000 2
22765 22764 22766 22767 1 180.0000771 15.1670000 2
22765 22764 22766 22768 1 180.0000771 15.1670000 2
22762 22766 22764 22765 4 180.0000771 4.6024000 2
22759 22766 22768 22769 4 180.0000771 4.6024000 2
22764 22766 22768 22769 1 180.0000771 15.1670000 2
22767 22766 22768 22769 1 180.0000771 15.1670000 2
22759 22768 22766 22764 1 180.0000771 15.1670000 2
22759 22768 22766 22767 1 180.0000771 15.1670000 2
22764 22768 22766 22767 4 180.0000771 4.6024000 2
22770 22771 22772 22773 1 180.0000771 15.1670000 2
22770 22771 22772 22774 1 180.0000771 15.1670000 2
22773 22771 22772 22774 4 180.0000771 4.6024000 2
22770 22771 22780 22772 4 180.0000771 4.6024000 2
22770 22771 22780 22778 1 180.0000771 15.1670000 2
22770 22771 22780 22781 1 180.0000771 15.1670000 2
22772 22771 22780 22778 1 180.0000771 15.1670000 2
22772 22771 22780 22781 1 180.0000771 15.1670000 2
22773 22772 22771 22780 1 180.0000771 15.1670000 2
22774 22772 22771 22780 1 180.0000771 15.1670000 2
22771 22772 22774 22775 1 180.0000771 15.1670000 2
22771 22772 22774 22776 1 180.0000771 15.1670000 2
22773 22772 22774 22775 1 180.0000771 15.1670000 2
22773 22772 22774 22776 1 180.0000771 15.1670000 2
22772 22774 22776 22777 1 180.0000771 15.1670000 2
22772 22774 22776 22778 1 180.0000771 15.1670000 2
22775 22774 22776 22777 1 180.0000771 15.1670000 2
22775 22774 22776 22778 1 180.0000771 15.1670000 2
22772 22776 22774 22775 4 180.0000771 4.6024000 2
22774 22776 22778 22779 1 180.0000771 15.1670000 2
22774 22776 22778 22780 1 180.0000771 15.1670000 2
22777 22776 22778 22779 1 180.0000771 15.1670000 2
22777 22776 22778 22780 1 180.0000771 15.1670000 2
22774 22778 22776 22777 4 180.0000771 4.6024000 2
22771 22778 22780 22781 4 180.0000771 4.6024000 2
22776 22778 22780 22781 1 180.0000771 15.1670000 2
22779 22778 22780 22781 1 180.0000771 15.1670000 2
22771 22780 22778 22776 1 180.0000771 15.1670000 2
22771 22780 22778 22779 1 180.0000771 15.1670000 2
22776 22780 22778 22779 4 180.0000771 4.6024000 2
22782 22783 22784 22785 1 180.0000771 15.1670000 2
22782 22783 22784 22786 1 180.0000771 15.1670000 2
22785 22783 22784 22786 4 180.0000771 4.6024000 2
22782 22783 22792 22784 4 180.0000771 4.6024000 2
22782 22783 22792 22790 1 180.0000771 15.1670000 2
22782 22783 22792 22793 1 180.0000771 15.1670000 2
22784 22783 22792 22790 1 180.0000771 15.1670000 2
22784 22783 22792 22793 1 180.0000771 15.1670000 2
22785 22784 22783 22792 1 180.0000771 15.1670000 2
22786 22784 22783 22792 1 180.0000771 15.1670000 2
22783 22784 22786 22787 1 180.0000771 15.1670000 2
22783 22784 22786 22788 1 180.0000771 15.1670000 2
22785 22784 22786 22787 1 180.0000771 15.1670000 2
22785 22784 22786 22788 1 180.0000771 15.1670000 2
22784 22786 22788 22789 1 180.0000771 15.1670000 2
22784 22786 22788 22790 1 180.0000771 15.1670000 2
22787 22786 22788 22789 1 180.0000771 15.1670000 2
22787 22786 22788 22790 1 180.0000771 15.1670000 2
22784 22788 22786 22787 4 180.0000771 4.6024000 2
22786 22788 22790 22791 1 180.0000771 15.1670000 2
22786 22788 22790 22792 1 180.0000771 15.1670000 2
22789 22788 22790 22791 1 180.0000771 15.1670000 2
22789 22788 22790 22792 1 180.0000771 15.1670000 2
22786 22790 22788 22789 4 180.0000771 4.6024000 2
22783 22790 22792 22793 4 180.0000771 4.6024000 2
22788 22790 22792 22793 1 180.0000771 15.1670000 2
22791 22790 22792 22793 1 180.0000771 15.1670000 2
22783 22792 22790 22788 1 180.0000771 15.1670000 2
22783 22792 22790 22791 1 180.0000771 15.1670000 2
22788 22792 22790 22791 4 180.0000771 4.6024000 2
22794 22795 22796 22797 1 180.0000771 15.1670000 2
22794 22795 22796 22798 1 180.0000771 15.1670000 2
22797 22795 22796 22798 4 180.0000771 4.6024000 2
22794 22795 22804 22796 4 180.0000771 4.6024000 2
22794 22795 22804 22802 1 180.0000771 15.1670000 2
22794 22795 22804 22805 1 180.0000771 15.1670000 2
22796 22795 22804 22802 1 180.0000771 15.1670000 2
22796 22795 22804 22805 1 180.0000771 15.1670000 2
22797 22796 22795 22804 1 180.0000771 15.1670000 2
22798 22796 22795 22804 1 180.0000771 15.1670000 2
22795 22796 22798 22799 1 180.0000771 15.1670000 2
22795 22796 22798 22800 1 180.0000771 15.1670000 2
22797 22796 22798 22799 1 180.0000771 15.1670000 2
22797 22796 22798 22800 1 180.0000771 15.1670000 2
22796 22798 22800 22801 1 180.0000771 15.1670000 2
22796 22798 22800 22802 1 180.0000771 15.1670000 2
22799 22798 22800 22801 1 180.0000771 15.1670000 2
22799 22798 22800 22802 1 180.0000771 15.1670000 2
22796 22800 22798 22799 4 180.0000771 4.6024000 2
22798 22800 22802 22803 1 180.0000771 15.1670000 2
22798 22800 22802 22804 1 180.0000771 15.1670000 2
22801 22800 22802 22803 1 180.0000771 15.1670000 2
22801 22800 22802 22804 1 180.0000771 15.1670000 2
22798 22802 22800 22801 4 180.0000771 4.6024000 2
22795 22802 22804 22805 4 180.0000771 4.6024000 2
22800 22802 22804 22805 1 180.0000771 15.1670000 2
22803 22802 22804 22805 1 180.0000771 15.1670000 2
22795 22804 22802 22800 1 180.0000771 15.1670000 2
22795 22804 22802 22803 1 180.0000771 15.1670000 2
22800 22804 22802 22803 4 180.0000771 4.6024000 2
22806 22807 22808 22809 1 180.0000771 15.1670000 2
22806 22807 22808 22810 1 180.0000771 15.1670000 2
22809 22807 22808 22810 4 180.0000771 4.6024000 2
22806 22807 22816 22808 4 180.0000771 4.6024000 2
22806 22807 22816 22814 1 180.0000771 15.1670000 2
22806 22807 22816 22817 1 180.0000771 15.1670000 2
22808 22807 22816 22814 1 180.0000771 15.1670000 2
22808 22807 22816 22817 1 180.0000771 15.1670000 2
22809 22808 22807 22816 1 180.0000771 15.1670000 2
22810 22808 22807 22816 1 180.0000771 15.1670000 2
22807 22808 22810 22811 1 180.0000771 15.1670000 2
22807 22808 22810 22812 1 180.0000771 15.1670000 2
22809 22808 22810 22811 1 180.0000771 15.1670000 2
22809 22808 22810 22812 1 180.0000771 15.1670000 2
22808 22810 22812 22813 1 180.0000771 15.1670000 2
22808 22810 22812 22814 1 180.0000771 15.1670000 2
22811 22810 22812 22813 1 180.0000771 15.1670000 2
22811 22810 22812 22814 1 180.0000771 15.1670000 2
22808 22812 22810 22811 4 180.0000771 4.6024000 2
22810 22812 22814 22815 1 180.0000771 15.1670000 2
22810 22812 22814 22816 1 180.0000771 15.1670000 2
22813 22812 22814 22815 1 180.0000771 15.1670000 2
22813 22812 22814 22816 1 180.0000771 15.1670000 2
22810 22814 22812 22813 4 180.0000771 4.6024000 2
22807 22814 22816 22817 4 180.0000771 4.6024000 2
22812 22814 22816 22817 1 180.0000771 15.1670000 2
22815 22814 22816 22817 1 180.0000771 15.1670000 2
22807 22816 22814 22812 1 180.0000771 15.1670000 2
22807 22816 22814 22815 1 180.0000771 15.1670000 2
22812 22816 22814 22815 4 180.0000771 4.6024000 2
22818 22819 22820 22821 1 180.0000771 15.1670000 2
22818 22819 22820 22822 1 180.0000771 15.1670000 2
22821 22819 22820 22822 4 180.0000771 4.6024000 2
22818 22819 22828 22820 4 180.0000771 4.6024000 2
22818 22819 22828 22826 1 180.0000771 15.1670000 2
22818 22819 22828 22829 1 180.0000771 15.1670000 2
22820 22819 22828 22826 1 180.0000771 15.1670000 2
22820 22819 22828 22829 1 180.0000771 15.1670000 2
22821 22820 22819 22828 1 180.0000771 15.1670000 2
22822 22820 22819 22828 1 180.0000771 15.1670000 2
22819 22820 22822 22823 1 180.0000771 15.1670000 2
22819 22820 22822 22824 1 180.0000771 15.1670000 2
22821 22820 22822 22823 1 180.0000771 15.1670000 2
22821 22820 22822 22824 1 180.0000771 15.1670000 2
22820 22822 22824 22825 1 180.0000771 15.1670000 2
22820 22822 22824 22826 1 180.0000771 15.1670000 2
22823 22822 22824 22825 1 180.0000771 15.1670000 2
22823 22822 22824 22826 1 180.0000771 15.1670000 2
22820 22824 22822 22823 4 180.0000771 4.6024000 2
22822 22824 22826 22827 1 180.0000771 15.1670000 2
22822 22824 22826 22828 1 180.0000771 15.1670000 2
22825 22824 22826 22827 1 180.0000771 15.1670000 2
22825 22824 22826 22828 1 180.0000771 15.1670000 2
22822 22826 22824 22825 4 180.0000771 4.6024000 2
22819 22826 22828 22829 4 180.0000771 4.6024000 2
22824 22826 22828 22829 1 180.0000771 15.1670000 2
22827 22826 22828 22829 1 180.0000771 15.1670000 2
22819 22828 22826 22824 1 180.0000771 15.1670000 2
22819 22828 22826 22827 1 180.0000771 15.1670000 2
22824 22828 22826 22827 4 180.0000771 4.6024000 2
22830 22831 22832 22833 1 180.0000771 15.1670000 2
22830 22831 22832 22834 1 180.0000771 15.1670000 2
22833 22831 22832 22834 4 180.0000771 4.6024000 2
22830 22831 22840 22832 4 180.0000771 4.6024000 2
22830 22831 22840 22838 1 180.0000771 15.1670000 2
22830 22831 22840 22841 1 180.0000771 15.1670000 2
22832 22831 22840 22838 1 180.0000771 15.1670000 2
22832 22831 22840 22841 1 180.0000771 15.1670000 2
22833 22832 22831 22840 1 180.0000771 15.1670000 2
22834 22832 22831 22840 1 180.0000771 15.1670000 2
22831 22832 22834 22835 1 180.0000771 15.1670000 2
22831 22832 22834 22836 1 180.0000771 15.1670000 2
22833 22832 22834 22835 1 180.0000771 15.1670000 2
22833 22832 22834 22836 1 180.0000771 15.1670000 2
22832 22834 22836 22837 1 180.0000771 15.1670000 2
22832 22834 22836 22838 1 180.0000771 15.1670000 2
22835 22834 22836 22837 1 180.0000771 15.1670000 2
22835 22834 22836 22838 1 180.0000771 15.1670000 2
22832 22836 22834 22835 4 180.0000771 4.6024000 2
22834 22836 22838 22839 1 180.0000771 15.1670000 2
22834 22836 22838 22840 1 180.0000771 15.1670000 2
22837 22836 22838 22839 1 180.0000771 15.1670000 2
22837 22836 22838 22840 1 180.0000771 15.1670000 2
22834 22838 22836 22837 4 180.0000771 4.6024000 2
22831 22838 22840 22841 4 180.0000771 4.6024000 2
22836 22838 22840 22841 1 180.0000771 15.1670000 2
22839 22838 22840 22841 1 180.0000771 15.1670000 2
22831 22840 22838 22836 1 180.0000771 15.1670000 2
22831 22840 22838 22839 1 180.0000771 15.1670000 2
22836 22840 22838 22839 4 180.0000771 4.6024000 2
22842 22843 22844 22845 1 180.0000771 15.1670000 2
22842 22843 22844 22846 1 180.0000771 15.1670000 2
22845 22843 22844 22846 4 180.0000771 4.6024000 2
22842 22843 22852 22844 4 180.0000771 4.6024000 2
22842 22843 22852 22850 1 180.0000771 15.1670000 2
22842 22843 22852 22853 1 180.0000771 15.1670000 2
22844 22843 22852 22850 1 180.0000771 15.1670000 2
22844 22843 22852 22853 1 180.0000771 15.1670000 2
22845 22844 22843 22852 1 180.0000771 15.1670000 2
22846 22844 22843 22852 1 180.0000771 15.1670000 2
22843 22844 22846 22847 1 180.0000771 15.1670000 2
22843 22844 22846 22848 1 180.0000771 15.1670000 2
22845 22844 22846 22847 1 180.0000771 15.1670000 2
22845 22844 22846 22848 1 180.0000771 15.1670000 2
22844 22846 22848 22849 1 180.0000771 15.1670000 2
22844 22846 22848 22850 1 180.0000771 15.1670000 2
22847 22846 22848 22849 1 180.0000771 15.1670000 2
22847 22846 22848 22850 1 180.0000771 15.1670000 2
22844 22848 22846 22847 4 180.0000771 4.6024000 2
22846 22848 22850 22851 1 180.0000771 15.1670000 2
22846 22848 22850 22852 1 180.0000771 15.1670000 2
22849 22848 22850 22851 1 180.0000771 15.1670000 2
22849 22848 22850 22852 1 180.0000771 15.1670000 2
22846 22850 22848 22849 4 180.0000771 4.6024000 2
22843 22850 22852 22853 4 180.0000771 4.6024000 2
22848 22850 22852 22853 1 180.0000771 15.1670000 2
22851 22850 22852 22853 1 180.0000771 15.1670000 2
22843 22852 22850 22848 1 180.0000771 15.1670000 2
22843 22852 22850 22851 1 180.0000771 15.1670000 2
22848 22852 22850 22851 4 180.0000771 4.6024000 2
22854 22855 22856 22857 1 180.0000771 15.1670000 2
22854 22855 22856 22858 1 180.0000771 15.1670000 2
22857 22855 22856 22858 4 180.0000771 4.6024000 2
22854 22855 22864 22856 4 180.0000771 4.6024000 2
22854 22855 22864 22862 1 180.0000771 15.1670000 2
22854 22855 22864 22865 1 180.0000771 15.1670000 2
22856 22855 22864 22862 1 180.0000771 15.1670000 2
22856 22855 22864 22865 1 180.0000771 15.1670000 2
22857 22856 22855 22864 1 180.0000771 15.1670000 2
22858 22856 22855 22864 1 180.0000771 15.1670000 2
22855 22856 22858 22859 1 180.0000771 15.1670000 2
22855 22856 22858 22860 1 180.0000771 15.1670000 2
22857 22856 22858 22859 1 180.0000771 15.1670000 2
22857 22856 22858 22860 1 180.0000771 15.1670000 2
22856 22858 22860 22861 1 180.0000771 15.1670000 2
22856 22858 22860 22862 1 180.0000771 15.1670000 2
22859 22858 22860 22861 1 180.0000771 15.1670000 2
22859 22858 22860 22862 1 180.0000771 15.1670000 2
22856 22860 22858 22859 4 180.0000771 4.6024000 2
22858 22860 22862 22863 1 180.0000771 15.1670000 2
22858 22860 22862 22864 1 180.0000771 15.1670000 2
22861 22860 22862 22863 1 180.0000771 15.1670000 2
22861 22860 22862 22864 1 180.0000771 15.1670000 2
22858 22862 22860 22861 4 180.0000771 4.6024000 2
22855 22862 22864 22865 4 180.0000771 4.6024000 2
22860 22862 22864 22865 1 180.0000771 15.1670000 2
22863 22862 22864 22865 1 180.0000771 15.1670000 2
22855 22864 22862 22860 1 180.0000771 15.1670000 2
22855 22864 22862 22863 1 180.0000771 15.1670000 2
22860 22864 22862 22863 4 180.0000771 4.6024000 2
22866 22867 22868 22869 1 180.0000771 15.1670000 2
22866 22867 22868 22870 1 180.0000771 15.1670000 2
22869 22867 22868 22870 4 180.0000771 4.6024000 2
22866 22867 22876 22868 4 180.0000771 4.6024000 2
22866 22867 22876 22874 1 180.0000771 15.1670000 2
22866 22867 22876 22877 1 180.0000771 15.1670000 2
22868 22867 22876 22874 1 180.0000771 15.1670000 2
22868 22867 22876 22877 1 180.0000771 15.1670000 2
22869 22868 22867 22876 1 180.0000771 15.1670000 2
22870 22868 22867 22876 1 180.0000771 15.1670000 2
22867 22868 22870 22871 1 180.0000771 15.1670000 2
22867 22868 22870 22872 1 180.0000771 15.1670000 2
22869 22868 22870 22871 1 180.0000771 15.1670000 2
22869 22868 22870 22872 1 180.0000771 15.1670000 2
22868 22870 22872 22873 1 180.0000771 15.1670000 2
22868 22870 22872 22874 1 180.0000771 15.1670000 2
22871 22870 22872 22873 1 180.0000771 15.1670000 2
22871 22870 22872 22874 1 180.0000771 15.1670000 2
22868 22872 22870 22871 4 180.0000771 4.6024000 2
22870 22872 22874 22875 1 180.0000771 15.1670000 2
22870 22872 22874 22876 1 180.0000771 15.1670000 2
22873 22872 22874 22875 1 180.0000771 15.1670000 2
22873 22872 22874 22876 1 180.0000771 15.1670000 2
22870 22874 22872 22873 4 180.0000771 4.6024000 2
22867 22874 22876 22877 4 180.0000771 4.6024000 2
22872 22874 22876 22877 1 180.0000771 15.1670000 2
22875 22874 22876 22877 1 180.0000771 15.1670000 2
22867 22876 22874 22872 1 180.0000771 15.1670000 2
22867 22876 22874 22875 1 180.0000771 15.1670000 2
22872 22876 22874 22875 4 180.0000771 4.6024000 2
22878 22879 22880 22881 1 180.0000771 15.1670000 2
22878 22879 22880 22882 1 180.0000771 15.1670000 2
22881 22879 22880 22882 4 180.0000771 4.6024000 2
22878 22879 22888 22880 4 180.0000771 4.6024000 2
22878 22879 22888 22886 1 180.0000771 15.1670000 2
22878 22879 22888 22889 1 180.0000771 15.1670000 2
22880 22879 22888 22886 1 180.0000771 15.1670000 2
22880 22879 22888 22889 1 180.0000771 15.1670000 2
22881 22880 22879 22888 1 180.0000771 15.1670000 2
22882 22880 22879 22888 1 180.0000771 15.1670000 2
22879 22880 22882 22883 1 180.0000771 15.1670000 2
22879 22880 22882 22884 1 180.0000771 15.1670000 2
22881 22880 22882 22883 1 180.0000771 15.1670000 2
22881 22880 22882 22884 1 180.0000771 15.1670000 2
22880 22882 22884 22885 1 180.0000771 15.1670000 2
22880 22882 22884 22886 1 180.0000771 15.1670000 2
22883 22882 22884 22885 1 180.0000771 15.1670000 2
22883 22882 22884 22886 1 180.0000771 15.1670000 2
22880 22884 22882 22883 4 180.0000771 4.6024000 2
22882 22884 22886 22887 1 180.0000771 15.1670000 2
22882 22884 22886 22888 1 180.0000771 15.1670000 2
22885 22884 22886 22887 1 180.0000771 15.1670000 2
22885 22884 22886 22888 1 180.0000771 15.1670000 2
22882 22886 22884 22885 4 180.0000771 4.6024000 2
22879 22886 22888 22889 4 180.0000771 4.6024000 2
22884 22886 22888 22889 1 180.0000771 15.1670000 2
22887 22886 22888 22889 1 180.0000771 15.1670000 2
22879 22888 22886 22884 1 180.0000771 15.1670000 2
22879 22888 22886 22887 1 180.0000771 15.1670000 2
22884 22888 22886 22887 4 180.0000771 4.6024000 2
22890 22891 22892 22893 1 180.0000771 15.1670000 2
22890 22891 22892 22894 1 180.0000771 15.1670000 2
22893 22891 22892 22894 4 180.0000771 4.6024000 2
22890 22891 22900 22892 4 180.0000771 4.6024000 2
22890 22891 22900 22898 1 180.0000771 15.1670000 2
22890 22891 22900 22901 1 180.0000771 15.1670000 2
22892 22891 22900 22898 1 180.0000771 15.1670000 2
22892 22891 22900 22901 1 180.0000771 15.1670000 2
22893 22892 22891 22900 1 180.0000771 15.1670000 2
22894 22892 22891 22900 1 180.0000771 15.1670000 2
22891 22892 22894 22895 1 180.0000771 15.1670000 2
22891 22892 22894 22896 1 180.0000771 15.1670000 2
22893 22892 22894 22895 1 180.0000771 15.1670000 2
22893 22892 22894 22896 1 180.0000771 15.1670000 2
22892 22894 22896 22897 1 180.0000771 15.1670000 2
22892 22894 22896 22898 1 180.0000771 15.1670000 2
22895 22894 22896 22897 1 180.0000771 15.1670000 2
22895 22894 22896 22898 1 180.0000771 15.1670000 2
22892 22896 22894 22895 4 180.0000771 4.6024000 2
22894 22896 22898 22899 1 180.0000771 15.1670000 2
22894 22896 22898 22900 1 180.0000771 15.1670000 2
22897 22896 22898 22899 1 180.0000771 15.1670000 2
22897 22896 22898 22900 1 180.0000771 15.1670000 2
22894 22898 22896 22897 4 180.0000771 4.6024000 2
22891 22898 22900 22901 4 180.0000771 4.6024000 2
22896 22898 22900 22901 1 180.0000771 15.1670000 2
22899 22898 22900 22901 1 180.0000771 15.1670000 2
22891 22900 22898 22896 1 180.0000771 15.1670000 2
22891 22900 22898 22899 1 180.0000771 15.1670000 2
22896 22900 22898 22899 4 180.0000771 4.6024000 2
22902 22903 22904 22905 1 180.0000771 15.1670000 2
22902 22903 22904 22906 1 180.0000771 15.1670000 2
22905 22903 22904 22906 4 180.0000771 4.6024000 2
22902 22903 22912 22904 4 180.0000771 4.6024000 2
22902 22903 22912 22910 1 180.0000771 15.1670000 2
22902 22903 22912 22913 1 180.0000771 15.1670000 2
22904 22903 22912 22910 1 180.0000771 15.1670000 2
22904 22903 22912 22913 1 180.0000771 15.1670000 2
22905 22904 22903 22912 1 180.0000771 15.1670000 2
22906 22904 22903 22912 1 180.0000771 15.1670000 2
22903 22904 22906 22907 1 180.0000771 15.1670000 2
22903 22904 22906 22908 1 180.0000771 15.1670000 2
22905 22904 22906 22907 1 180.0000771 15.1670000 2
22905 22904 22906 22908 1 180.0000771 15.1670000 2
22904 22906 22908 22909 1 180.0000771 15.1670000 2
22904 22906 22908 22910 1 180.0000771 15.1670000 2
22907 22906 22908 22909 1 180.0000771 15.1670000 2
22907 22906 22908 22910 1 180.0000771 15.1670000 2
22904 22908 22906 22907 4 180.0000771 4.6024000 2
22906 22908 22910 22911 1 180.0000771 15.1670000 2
22906 22908 22910 22912 1 180.0000771 15.1670000 2
22909 22908 22910 22911 1 180.0000771 15.1670000 2
22909 22908 22910 22912 1 180.0000771 15.1670000 2
22906 22910 22908 22909 4 180.0000771 4.6024000 2
22903 22910 22912 22913 4 180.0000771 4.6024000 2
22908 22910 22912 22913 1 180.0000771 15.1670000 2
22911 22910 22912 22913 1 180.0000771 15.1670000 2
22903 22912 22910 22908 1 180.0000771 15.1670000 2
22903 22912 22910 22911 1 180.0000771 15.1670000 2
22908 22912 22910 22911 4 180.0000771 4.6024000 2
22914 22915 22916 22917 1 180.0000771 15.1670000 2
22914 22915 22916 22918 1 180.0000771 15.1670000 2
22917 22915 22916 22918 4 180.0000771 4.6024000 2
22914 22915 22924 22916 4 180.0000771 4.6024000 2
22914 22915 22924 22922 1 180.0000771 15.1670000 2
22914 22915 22924 22925 1 180.0000771 15.1670000 2
22916 22915 22924 22922 1 180.0000771 15.1670000 2
22916 22915 22924 22925 1 180.0000771 15.1670000 2
22917 22916 22915 22924 1 180.0000771 15.1670000 2
22918 22916 22915 22924 1 180.0000771 15.1670000 2
22915 22916 22918 22919 1 180.0000771 15.1670000 2
22915 22916 22918 22920 1 180.0000771 15.1670000 2
22917 22916 22918 22919 1 180.0000771 15.1670000 2
22917 22916 22918 22920 1 180.0000771 15.1670000 2
22916 22918 22920 22921 1 180.0000771 15.1670000 2
22916 22918 22920 22922 1 180.0000771 15.1670000 2
22919 22918 22920 22921 1 180.0000771 15.1670000 2
22919 22918 22920 22922 1 180.0000771 15.1670000 2
22916 22920 22918 22919 4 180.0000771 4.6024000 2
22918 22920 22922 22923 1 180.0000771 15.1670000 2
22918 22920 22922 22924 1 180.0000771 15.1670000 2
22921 22920 22922 22923 1 180.0000771 15.1670000 2
22921 22920 22922 22924 1 180.0000771 15.1670000 2
22918 22922 22920 22921 4 180.0000771 4.6024000 2
22915 22922 22924 22925 4 180.0000771 4.6024000 2
22920 22922 22924 22925 1 180.0000771 15.1670000 2
22923 22922 22924 22925 1 180.0000771 15.1670000 2
22915 22924 22922 22920 1 180.0000771 15.1670000 2
22915 22924 22922 22923 1 180.0000771 15.1670000 2
22920 22924 22922 22923 4 180.0000771 4.6024000 2
22926 22927 22928 22929 1 180.0000771 15.1670000 2
22926 22927 22928 22930 1 180.0000771 15.1670000 2
22929 22927 22928 22930 4 180.0000771 4.6024000 2
22926 22927 22936 22928 4 180.0000771 4.6024000 2
22926 22927 22936 22934 1 180.0000771 15.1670000 2
22926 22927 22936 22937 1 180.0000771 15.1670000 2
22928 22927 22936 22934 1 180.0000771 15.1670000 2
22928 22927 22936 22937 1 180.0000771 15.1670000 2
22929 22928 22927 22936 1 180.0000771 15.1670000 2
22930 22928 22927 22936 1 180.0000771 15.1670000 2
22927 22928 22930 22931 1 180.0000771 15.1670000 2
22927 22928 22930 22932 1 180.0000771 15.1670000 2
22929 22928 22930 22931 1 180.0000771 15.1670000 2
22929 22928 22930 22932 1 180.0000771 15.1670000 2
22928 22930 22932 22933 1 180.0000771 15.1670000 2
22928 22930 22932 22934 1 180.0000771 15.1670000 2
22931 22930 22932 22933 1 180.0000771 15.1670000 2
22931 22930 22932 22934 1 180.0000771 15.1670000 2
22928 22932 22930 22931 4 180.0000771 4.6024000 2
22930 22932 22934 22935 1 180.0000771 15.1670000 2
22930 22932 22934 22936 1 180.0000771 15.1670000 2
22933 22932 22934 22935 1 180.0000771 15.1670000 2
22933 22932 22934 22936 1 180.0000771 15.1670000 2
22930 22934 22932 22933 4 180.0000771 4.6024000 2
22927 22934 22936 22937 4 180.0000771 4.6024000 2
22932 22934 22936 22937 1 180.0000771 15.1670000 2
22935 22934 22936 22937 1 180.0000771 15.1670000 2
22927 22936 22934 22932 1 180.0000771 15.1670000 2
22927 22936 22934 22935 1 180.0000771 15.1670000 2
22932 22936 22934 22935 4 180.0000771 4.6024000 2
22938 22939 22940 22941 1 180.0000771 15.1670000 2
22938 22939 22940 22942 1 180.0000771 15.1670000 2
22941 22939 22940 22942 4 180.0000771 4.6024000 2
22938 22939 22948 22940 4 180.0000771 4.6024000 2
22938 22939 22948 22946 1 180.0000771 15.1670000 2
22938 22939 22948 22949 1 180.0000771 15.1670000 2
22940 22939 22948 22946 1 180.0000771 15.1670000 2
22940 22939 22948 22949 1 180.0000771 15.1670000 2
22941 22940 22939 22948 1 180.0000771 15.1670000 2
22942 22940 22939 22948 1 180.0000771 15.1670000 2
22939 22940 22942 22943 1 180.0000771 15.1670000 2
22939 22940 22942 22944 1 180.0000771 15.1670000 2
22941 22940 22942 22943 1 180.0000771 15.1670000 2
22941 22940 22942 22944 1 180.0000771 15.1670000 2
22940 22942 22944 22945 1 180.0000771 15.1670000 2
22940 22942 22944 22946 1 180.0000771 15.1670000 2
22943 22942 22944 22945 1 180.0000771 15.1670000 2
22943 22942 22944 22946 1 180.0000771 15.1670000 2
22940 22944 22942 22943 4 180.0000771 4.6024000 2
22942 22944 22946 22947 1 180.0000771 15.1670000 2
22942 22944 22946 22948 1 180.0000771 15.1670000 2
22945 22944 22946 22947 1 180.0000771 15.1670000 2
22945 22944 22946 22948 1 180.0000771 15.1670000 2
22942 22946 22944 22945 4 180.0000771 4.6024000 2
22939 22946 22948 22949 4 180.0000771 4.6024000 2
22944 22946 22948 22949 1 180.0000771 15.1670000 2
22947 22946 22948 22949 1 180.0000771 15.1670000 2
22939 22948 22946 22944 1 180.0000771 15.1670000 2
22939 22948 22946 22947 1 180.0000771 15.1670000 2
22944 22948 22946 22947 4 180.0000771 4.6024000 2
22950 22951 22952 22953 1 180.0000771 15.1670000 2
22950 22951 22952 22954 1 180.0000771 15.1670000 2
22953 22951 22952 22954 4 180.0000771 4.6024000 2
22950 22951 22960 22952 4 180.0000771 4.6024000 2
22950 22951 22960 22958 1 180.0000771 15.1670000 2
22950 22951 22960 22961 1 180.0000771 15.1670000 2
22952 22951 22960 22958 1 180.0000771 15.1670000 2
22952 22951 22960 22961 1 180.0000771 15.1670000 2
22953 22952 22951 22960 1 180.0000771 15.1670000 2
22954 22952 22951 22960 1 180.0000771 15.1670000 2
22951 22952 22954 22955 1 180.0000771 15.1670000 2
22951 22952 22954 22956 1 180.0000771 15.1670000 2
22953 22952 22954 22955 1 180.0000771 15.1670000 2
22953 22952 22954 22956 1 180.0000771 15.1670000 2
22952 22954 22956 22957 1 180.0000771 15.1670000 2
22952 22954 22956 22958 1 180.0000771 15.1670000 2
22955 22954 22956 22957 1 180.0000771 15.1670000 2
22955 22954 22956 22958 1 180.0000771 15.1670000 2
22952 22956 22954 22955 4 180.0000771 4.6024000 2
22954 22956 22958 22959 1 180.0000771 15.1670000 2
22954 22956 22958 22960 1 180.0000771 15.1670000 2
22957 22956 22958 22959 1 180.0000771 15.1670000 2
22957 22956 22958 22960 1 180.0000771 15.1670000 2
22954 22958 22956 22957 4 180.0000771 4.6024000 2
22951 22958 22960 22961 4 180.0000771 4.6024000 2
22956 22958 22960 22961 1 180.0000771 15.1670000 2
22959 22958 22960 22961 1 180.0000771 15.1670000 2
22951 22960 22958 22956 1 180.0000771 15.1670000 2
22951 22960 22958 22959 1 180.0000771 15.1670000 2
22956 22960 22958 22959 4 180.0000771 4.6024000 2
22962 22963 22964 22965 1 180.0000771 15.1670000 2
22962 22963 22964 22966 1 180.0000771 15.1670000 2
22965 22963 22964 22966 4 180.0000771 4.6024000 2
22962 22963 22972 22964 4 180.0000771 4.6024000 2
22962 22963 22972 22970 1 180.0000771 15.1670000 2
22962 22963 22972 22973 1 180.0000771 15.1670000 2
22964 22963 22972 22970 1 180.0000771 15.1670000 2
22964 22963 22972 22973 1 180.0000771 15.1670000 2
22965 22964 22963 22972 1 180.0000771 15.1670000 2
22966 22964 22963 22972 1 180.0000771 15.1670000 2
22963 22964 22966 22967 1 180.0000771 15.1670000 2
22963 22964 22966 22968 1 180.0000771 15.1670000 2
22965 22964 22966 22967 1 180.0000771 15.1670000 2
22965 22964 22966 22968 1 180.0000771 15.1670000 2
22964 22966 22968 22969 1 180.0000771 15.1670000 2
22964 22966 22968 22970 1 180.0000771 15.1670000 2
22967 22966 22968 22969 1 180.0000771 15.1670000 2
22967 22966 22968 22970 1 180.0000771 15.1670000 2
22964 22968 22966 22967 4 180.0000771 4.6024000 2
22966 22968 22970 22971 1 180.0000771 15.1670000 2
22966 22968 22970 22972 1 180.0000771 15.1670000 2
22969 22968 22970 22971 1 180.0000771 15.1670000 2
22969 22968 22970 22972 1 180.0000771 15.1670000 2
22966 22970 22968 22969 4 180.0000771 4.6024000 2
22963 22970 22972 22973 4 180.0000771 4.6024000 2
22968 22970 22972 22973 1 180.0000771 15.1670000 2
22971 22970 22972 22973 1 180.0000771 15.1670000 2
22963 22972 22970 22968 1 180.0000771 15.1670000 2
22963 22972 22970 22971 1 180.0000771 15.1670000 2
22968 22972 22970 22971 4 180.0000771 4.6024000 2
22974 22975 22976 22977 1 180.0000771 15.1670000 2
22974 22975 22976 22978 1 180.0000771 15.1670000 2
22977 22975 22976 22978 4 180.0000771 4.6024000 2
22974 22975 22984 22976 4 180.0000771 4.6024000 2
22974 22975 22984 22982 1 180.0000771 15.1670000 2
22974 22975 22984 22985 1 180.0000771 15.1670000 2
22976 22975 22984 22982 1 180.0000771 15.1670000 2
22976 22975 22984 22985 1 180.0000771 15.1670000 2
22977 22976 22975 22984 1 180.0000771 15.1670000 2
22978 22976 22975 22984 1 180.0000771 15.1670000 2
22975 22976 22978 22979 1 180.0000771 15.1670000 2
22975 22976 22978 22980 1 180.0000771 15.1670000 2
22977 22976 22978 22979 1 180.0000771 15.1670000 2
22977 22976 22978 22980 1 180.0000771 15.1670000 2
22976 22978 22980 22981 1 180.0000771 15.1670000 2
22976 22978 22980 22982 1 180.0000771 15.1670000 2
22979 22978 22980 22981 1 180.0000771 15.1670000 2
22979 22978 22980 22982 1 180.0000771 15.1670000 2
22976 22980 22978 22979 4 180.0000771 4.6024000 2
22978 22980 22982 22983 1 180.0000771 15.1670000 2
22978 22980 22982 22984 1 180.0000771 15.1670000 2
22981 22980 22982 22983 1 180.0000771 15.1670000 2
22981 22980 22982 22984 1 180.0000771 15.1670000 2
22978 22982 22980 22981 4 180.0000771 4.6024000 2
22975 22982 22984 22985 4 180.0000771 4.6024000 2
22980 22982 22984 22985 1 180.0000771 15.1670000 2
22983 22982 22984 22985 1 180.0000771 15.1670000 2
22975 22984 22982 22980 1 180.0000771 15.1670000 2
22975 22984 22982 22983 1 180.0000771 15.1670000 2
22980 22984 22982 22983 4 180.0000771 4.6024000 2
22986 22987 22988 22989 1 180.0000771 15.1670000 2
22986 22987 22988 22990 1 180.0000771 15.1670000 2
22989 22987 22988 22990 4 180.0000771 4.6024000 2
22986 22987 22996 22988 4 180.0000771 4.6024000 2
22986 22987 22996 22994 1 180.0000771 15.1670000 2
22986 22987 22996 22997 1 180.0000771 15.1670000 2
22988 22987 22996 22994 1 180.0000771 15.1670000 2
22988 22987 22996 22997 1 180.0000771 15.1670000 2
22989 22988 22987 22996 1 180.0000771 15.1670000 2
22990 22988 22987 22996 1 180.0000771 15.1670000 2
22987 22988 22990 22991 1 180.0000771 15.1670000 2
22987 22988 22990 22992 1 180.0000771 15.1670000 2
22989 22988 22990 22991 1 180.0000771 15.1670000 2
22989 22988 22990 22992 1 180.0000771 15.1670000 2
22988 22990 22992 22993 1 180.0000771 15.1670000 2
22988 22990 22992 22994 1 180.0000771 15.1670000 2
22991 22990 22992 22993 1 180.0000771 15.1670000 2
22991 22990 22992 22994 1 180.0000771 15.1670000 2
22988 22992 22990 22991 4 180.0000771 4.6024000 2
22990 22992 22994 22995 1 180.0000771 15.1670000 2
22990 22992 22994 22996 1 180.0000771 15.1670000 2
22993 22992 22994 22995 1 180.0000771 15.1670000 2
22993 22992 22994 22996 1 180.0000771 15.1670000 2
22990 22994 22992 22993 4 180.0000771 4.6024000 2
22987 22994 22996 22997 4 180.0000771 4.6024000 2
22992 22994 22996 22997 1 180.0000771 15.1670000 2
22995 22994 22996 22997 1 180.0000771 15.1670000 2
22987 22996 22994 22992 1 180.0000771 15.1670000 2
22987 22996 22994 22995 1 180.0000771 15.1670000 2
22992 22996 22994 22995 4 180.0000771 4.6024000 2
22998 22999 23000 23001 1 180.0000771 15.1670000 2
22998 22999 23000 23002 1 180.0000771 15.1670000 2
23001 22999 23000 23002 4 180.0000771 4.6024000 2
22998 22999 23008 23000 4 180.0000771 4.6024000 2
22998 22999 23008 23006 1 180.0000771 15.1670000 2
22998 22999 23008 23009 1 180.0000771 15.1670000 2
23000 22999 23008 23006 1 180.0000771 15.1670000 2
23000 22999 23008 23009 1 180.0000771 15.1670000 2
23001 23000 22999 23008 1 180.0000771 15.1670000 2
23002 23000 22999 23008 1 180.0000771 15.1670000 2
22999 23000 23002 23003 1 180.0000771 15.1670000 2
22999 23000 23002 23004 1 180.0000771 15.1670000 2
23001 23000 23002 23003 1 180.0000771 15.1670000 2
23001 23000 23002 23004 1 180.0000771 15.1670000 2
23000 23002 23004 23005 1 180.0000771 15.1670000 2
23000 23002 23004 23006 1 180.0000771 15.1670000 2
23003 23002 23004 23005 1 180.0000771 15.1670000 2
23003 23002 23004 23006 1 180.0000771 15.1670000 2
23000 23004 23002 23003 4 180.0000771 4.6024000 2
23002 23004 23006 23007 1 180.0000771 15.1670000 2
23002 23004 23006 23008 1 180.0000771 15.1670000 2
23005 23004 23006 23007 1 180.0000771 15.1670000 2
23005 23004 23006 23008 1 180.0000771 15.1670000 2
23002 23006 23004 23005 4 180.0000771 4.6024000 2
22999 23006 23008 23009 4 180.0000771 4.6024000 2
23004 23006 23008 23009 1 180.0000771 15.1670000 2
23007 23006 23008 23009 1 180.0000771 15.1670000 2
22999 23008 23006 23004 1 180.0000771 15.1670000 2
22999 23008 23006 23007 1 180.0000771 15.1670000 2
23004 23008 23006 23007 4 180.0000771 4.6024000 2
23010 23011 23012 23013 1 180.0000771 15.1670000 2
23010 23011 23012 23014 1 180.0000771 15.1670000 2
23013 23011 23012 23014 4 180.0000771 4.6024000 2
23010 23011 23020 23012 4 180.0000771 4.6024000 2
23010 23011 23020 23018 1 180.0000771 15.1670000 2
23010 23011 23020 23021 1 180.0000771 15.1670000 2
23012 23011 23020 23018 1 180.0000771 15.1670000 2
23012 23011 23020 23021 1 180.0000771 15.1670000 2
23013 23012 23011 23020 1 180.0000771 15.1670000 2
23014 23012 23011 23020 1 180.0000771 15.1670000 2
23011 23012 23014 23015 1 180.0000771 15.1670000 2
23011 23012 23014 23016 1 180.0000771 15.1670000 2
23013 23012 23014 23015 1 180.0000771 15.1670000 2
23013 23012 23014 23016 1 180.0000771 15.1670000 2
23012 23014 23016 23017 1 180.0000771 15.1670000 2
23012 23014 23016 23018 1 180.0000771 15.1670000 2
23015 23014 23016 23017 1 180.0000771 15.1670000 2
23015 23014 23016 23018 1 180.0000771 15.1670000 2
23012 23016 23014 23015 4 180.0000771 4.6024000 2
23014 23016 23018 23019 1 180.0000771 15.1670000 2
23014 23016 23018 23020 1 180.0000771 15.1670000 2
23017 23016 23018 23019 1 180.0000771 15.1670000 2
23017 23016 23018 23020 1 180.0000771 15.1670000 2
23014 23018 23016 23017 4 180.0000771 4.6024000 2
23011 23018 23020 23021 4 180.0000771 4.6024000 2
23016 23018 23020 23021 1 180.0000771 15.1670000 2
23019 23018 23020 23021 1 180.0000771 15.1670000 2
23011 23020 23018 23016 1 180.0000771 15.1670000 2
23011 23020 23018 23019 1 180.0000771 15.1670000 2
23016 23020 23018 23019 4 180.0000771 4.6024000 2
23022 23023 23024 23025 1 180.0000771 15.1670000 2
23022 23023 23024 23026 1 180.0000771 15.1670000 2
23025 23023 23024 23026 4 180.0000771 4.6024000 2
23022 23023 23032 23024 4 180.0000771 4.6024000 2
23022 23023 23032 23030 1 180.0000771 15.1670000 2
23022 23023 23032 23033 1 180.0000771 15.1670000 2
23024 23023 23032 23030 1 180.0000771 15.1670000 2
23024 23023 23032 23033 1 180.0000771 15.1670000 2
23025 23024 23023 23032 1 180.0000771 15.1670000 2
23026 23024 23023 23032 1 180.0000771 15.1670000 2
23023 23024 23026 23027 1 180.0000771 15.1670000 2
23023 23024 23026 23028 1 180.0000771 15.1670000 2
23025 23024 23026 23027 1 180.0000771 15.1670000 2
23025 23024 23026 23028 1 180.0000771 15.1670000 2
23024 23026 23028 23029 1 180.0000771 15.1670000 2
23024 23026 23028 23030 1 180.0000771 15.1670000 2
23027 23026 23028 23029 1 180.0000771 15.1670000 2
23027 23026 23028 23030 1 180.0000771 15.1670000 2
23024 23028 23026 23027 4 180.0000771 4.6024000 2
23026 23028 23030 23031 1 180.0000771 15.1670000 2
23026 23028 23030 23032 1 180.0000771 15.1670000 2
23029 23028 23030 23031 1 180.0000771 15.1670000 2
23029 23028 23030 23032 1 180.0000771 15.1670000 2
23026 23030 23028 23029 4 180.0000771 4.6024000 2
23023 23030 23032 23033 4 180.0000771 4.6024000 2
23028 23030 23032 23033 1 180.0000771 15.1670000 2
23031 23030 23032 23033 1 180.0000771 15.1670000 2
23023 23032 23030 23028 1 180.0000771 15.1670000 2
23023 23032 23030 23031 1 180.0000771 15.1670000 2
23028 23032 23030 23031 4 180.0000771 4.6024000 2
23034 23035 23036 23037 1 180.0000771 15.1670000 2
23034 23035 23036 23038 1 180.0000771 15.1670000 2
23037 23035 23036 23038 4 180.0000771 4.6024000 2
23034 23035 23044 23036 4 180.0000771 4.6024000 2
23034 23035 23044 23042 1 180.0000771 15.1670000 2
23034 23035 23044 23045 1 180.0000771 15.1670000 2
23036 23035 23044 23042 1 180.0000771 15.1670000 2
23036 23035 23044 23045 1 180.0000771 15.1670000 2
23037 23036 23035 23044 1 180.0000771 15.1670000 2
23038 23036 23035 23044 1 180.0000771 15.1670000 2
23035 23036 23038 23039 1 180.0000771 15.1670000 2
23035 23036 23038 23040 1 180.0000771 15.1670000 2
23037 23036 23038 23039 1 180.0000771 15.1670000 2
23037 23036 23038 23040 1 180.0000771 15.1670000 2
23036 23038 23040 23041 1 180.0000771 15.1670000 2
23036 23038 23040 23042 1 180.0000771 15.1670000 2
23039 23038 23040 23041 1 180.0000771 15.1670000 2
23039 23038 23040 23042 1 180.0000771 15.1670000 2
23036 23040 23038 23039 4 180.0000771 4.6024000 2
23038 23040 23042 23043 1 180.0000771 15.1670000 2
23038 23040 23042 23044 1 180.0000771 15.1670000 2
23041 23040 23042 23043 1 180.0000771 15.1670000 2
23041 23040 23042 23044 1 180.0000771 15.1670000 2
23038 23042 23040 23041 4 180.0000771 4.6024000 2
23035 23042 23044 23045 4 180.0000771 4.6024000 2
23040 23042 23044 23045 1 180.0000771 15.1670000 2
23043 23042 23044 23045 1 180.0000771 15.1670000 2
23035 23044 23042 23040 1 180.0000771 15.1670000 2
23035 23044 23042 23043 1 180.0000771 15.1670000 2
23040 23044 23042 23043 4 180.0000771 4.6024000 2
23046 23047 23048 23049 1 180.0000771 15.1670000 2
23046 23047 23048 23050 1 180.0000771 15.1670000 2
23049 23047 23048 23050 4 180.0000771 4.6024000 2
23046 23047 23056 23048 4 180.0000771 4.6024000 2
23046 23047 23056 23054 1 180.0000771 15.1670000 2
23046 23047 23056 23057 1 180.0000771 15.1670000 2
23048 23047 23056 23054 1 180.0000771 15.1670000 2
23048 23047 23056 23057 1 180.0000771 15.1670000 2
23049 23048 23047 23056 1 180.0000771 15.1670000 2
23050 23048 23047 23056 1 180.0000771 15.1670000 2
23047 23048 23050 23051 1 180.0000771 15.1670000 2
23047 23048 23050 23052 1 180.0000771 15.1670000 2
23049 23048 23050 23051 1 180.0000771 15.1670000 2
23049 23048 23050 23052 1 180.0000771 15.1670000 2
23048 23050 23052 23053 1 180.0000771 15.1670000 2
23048 23050 23052 23054 1 180.0000771 15.1670000 2
23051 23050 23052 23053 1 180.0000771 15.1670000 2
23051 23050 23052 23054 1 180.0000771 15.1670000 2
23048 23052 23050 23051 4 180.0000771 4.6024000 2
23050 23052 23054 23055 1 180.0000771 15.1670000 2
23050 23052 23054 23056 1 180.0000771 15.1670000 2
23053 23052 23054 23055 1 180.0000771 15.1670000 2
23053 23052 23054 23056 1 180.0000771 15.1670000 2
23050 23054 23052 23053 4 180.0000771 4.6024000 2
23047 23054 23056 23057 4 180.0000771 4.6024000 2
23052 23054 23056 23057 1 180.0000771 15.1670000 2
23055 23054 23056 23057 1 180.0000771 15.1670000 2
23047 23056 23054 23052 1 180.0000771 15.1670000 2
23047 23056 23054 23055 1 180.0000771 15.1670000 2
23052 23056 23054 23055 4 180.0000771 4.6024000 2
23058 23059 23060 23061 1 180.0000771 15.1670000 2
23058 23059 23060 23062 1 180.0000771 15.1670000 2
23061 23059 23060 23062 4 180.0000771 4.6024000 2
23058 23059 23068 23060 4 180.0000771 4.6024000 2
23058 23059 23068 23066 1 180.0000771 15.1670000 2
23058 23059 23068 23069 1 180.0000771 15.1670000 2
23060 23059 23068 23066 1 180.0000771 15.1670000 2
23060 23059 23068 23069 1 180.0000771 15.1670000 2
23061 23060 23059 23068 1 180.0000771 15.1670000 2
23062 23060 23059 23068 1 180.0000771 15.1670000 2
23059 23060 23062 23063 1 180.0000771 15.1670000 2
23059 23060 23062 23064 1 180.0000771 15.1670000 2
23061 23060 23062 23063 1 180.0000771 15.1670000 2
23061 23060 23062 23064 1 180.0000771 15.1670000 2
23060 23062 23064 23065 1 180.0000771 15.1670000 2
23060 23062 23064 23066 1 180.0000771 15.1670000 2
23063 23062 23064 23065 1 180.0000771 15.1670000 2
23063 23062 23064 23066 1 180.0000771 15.1670000 2
23060 23064 23062 23063 4 180.0000771 4.6024000 2
23062 23064 23066 23067 1 180.0000771 15.1670000 2
23062 23064 23066 23068 1 180.0000771 15.1670000 2
23065 23064 23066 23067 1 180.0000771 15.1670000 2
23065 23064 23066 23068 1 180.0000771 15.1670000 2
23062 23066 23064 23065 4 180.0000771 4.6024000 2
23059 23066 23068 23069 4 180.0000771 4.6024000 2
23064 23066 23068 23069 1 180.0000771 15.1670000 2
23067 23066 23068 23069 1 180.0000771 15.1670000 2
23059 23068 23066 23064 1 180.0000771 15.1670000 2
23059 23068 23066 23067 1 180.0000771 15.1670000 2
23064 23068 23066 23067 4 180.0000771 4.6024000 2
23070 23071 23072 23073 1 180.0000771 15.1670000 2
23070 23071 23072 23074 1 180.0000771 15.1670000 2
23073 23071 23072 23074 4 180.0000771 4.6024000 2
23070 23071 23080 23072 4 180.0000771 4.6024000 2
23070 23071 23080 23078 1 180.0000771 15.1670000 2
23070 23071 23080 23081 1 180.0000771 15.1670000 2
23072 23071 23080 23078 1 180.0000771 15.1670000 2
23072 23071 23080 23081 1 180.0000771 15.1670000 2
23073 23072 23071 23080 1 180.0000771 15.1670000 2
23074 23072 23071 23080 1 180.0000771 15.1670000 2
23071 23072 23074 23075 1 180.0000771 15.1670000 2
23071 23072 23074 23076 1 180.0000771 15.1670000 2
23073 23072 23074 23075 1 180.0000771 15.1670000 2
23073 23072 23074 23076 1 180.0000771 15.1670000 2
23072 23074 23076 23077 1 180.0000771 15.1670000 2
23072 23074 23076 23078 1 180.0000771 15.1670000 2
23075 23074 23076 23077 1 180.0000771 15.1670000 2
23075 23074 23076 23078 1 180.0000771 15.1670000 2
23072 23076 23074 23075 4 180.0000771 4.6024000 2
23074 23076 23078 23079 1 180.0000771 15.1670000 2
23074 23076 23078 23080 1 180.0000771 15.1670000 2
23077 23076 23078 23079 1 180.0000771 15.1670000 2
23077 23076 23078 23080 1 180.0000771 15.1670000 2
23074 23078 23076 23077 4 180.0000771 4.6024000 2
23071 23078 23080 23081 4 180.0000771 4.6024000 2
23076 23078 23080 23081 1 180.0000771 15.1670000 2
23079 23078 23080 23081 1 180.0000771 15.1670000 2
23071 23080 23078 23076 1 180.0000771 15.1670000 2
23071 23080 23078 23079 1 180.0000771 15.1670000 2
23076 23080 23078 23079 4 180.0000771 4.6024000 2
23082 23083 23084 23085 1 180.0000771 15.1670000 2
23082 23083 23084 23086 1 180.0000771 15.1670000 2
23085 23083 23084 23086 4 180.0000771 4.6024000 2
23082 23083 23092 23084 4 180.0000771 4.6024000 2
23082 23083 23092 23090 1 180.0000771 15.1670000 2
23082 23083 23092 23093 1 180.0000771 15.1670000 2
23084 23083 23092 23090 1 180.0000771 15.1670000 2
23084 23083 23092 23093 1 180.0000771 15.1670000 2
23085 23084 23083 23092 1 180.0000771 15.1670000 2
23086 23084 23083 23092 1 180.0000771 15.1670000 2
23083 23084 23086 23087 1 180.0000771 15.1670000 2
23083 23084 23086 23088 1 180.0000771 15.1670000 2
23085 23084 23086 23087 1 180.0000771 15.1670000 2
23085 23084 23086 23088 1 180.0000771 15.1670000 2
23084 23086 23088 23089 1 180.0000771 15.1670000 2
23084 23086 23088 23090 1 180.0000771 15.1670000 2
23087 23086 23088 23089 1 180.0000771 15.1670000 2
23087 23086 23088 23090 1 180.0000771 15.1670000 2
23084 23088 23086 23087 4 180.0000771 4.6024000 2
23086 23088 23090 23091 1 180.0000771 15.1670000 2
23086 23088 23090 23092 1 180.0000771 15.1670000 2
23089 23088 23090 23091 1 180.0000771 15.1670000 2
23089 23088 23090 23092 1 180.0000771 15.1670000 2
23086 23090 23088 23089 4 180.0000771 4.6024000 2
23083 23090 23092 23093 4 180.0000771 4.6024000 2
23088 23090 23092 23093 1 180.0000771 15.1670000 2
23091 23090 23092 23093 1 180.0000771 15.1670000 2
23083 23092 23090 23088 1 180.0000771 15.1670000 2
23083 23092 23090 23091 1 180.0000771 15.1670000 2
23088 23092 23090 23091 4 180.0000771 4.6024000 2
23094 23095 23096 23097 1 180.0000771 15.1670000 2
23094 23095 23096 23098 1 180.0000771 15.1670000 2
23097 23095 23096 23098 4 180.0000771 4.6024000 2
23094 23095 23104 23096 4 180.0000771 4.6024000 2
23094 23095 23104 23102 1 180.0000771 15.1670000 2
23094 23095 23104 23105 1 180.0000771 15.1670000 2
23096 23095 23104 23102 1 180.0000771 15.1670000 2
23096 23095 23104 23105 1 180.0000771 15.1670000 2
23097 23096 23095 23104 1 180.0000771 15.1670000 2
23098 23096 23095 23104 1 180.0000771 15.1670000 2
23095 23096 23098 23099 1 180.0000771 15.1670000 2
23095 23096 23098 23100 1 180.0000771 15.1670000 2
23097 23096 23098 23099 1 180.0000771 15.1670000 2
23097 23096 23098 23100 1 180.0000771 15.1670000 2
23096 23098 23100 23101 1 180.0000771 15.1670000 2
23096 23098 23100 23102 1 180.0000771 15.1670000 2
23099 23098 23100 23101 1 180.0000771 15.1670000 2
23099 23098 23100 23102 1 180.0000771 15.1670000 2
23096 23100 23098 23099 4 180.0000771 4.6024000 2
23098 23100 23102 23103 1 180.0000771 15.1670000 2
23098 23100 23102 23104 1 180.0000771 15.1670000 2
23101 23100 23102 23103 1 180.0000771 15.1670000 2
23101 23100 23102 23104 1 180.0000771 15.1670000 2
23098 23102 23100 23101 4 180.0000771 4.6024000 2
23095 23102 23104 23105 4 180.0000771 4.6024000 2
23100 23102 23104 23105 1 180.0000771 15.1670000 2
23103 23102 23104 23105 1 180.0000771 15.1670000 2
23095 23104 23102 23100 1 180.0000771 15.1670000 2
23095 23104 23102 23103 1 180.0000771 15.1670000 2
23100 23104 23102 23103 4 180.0000771 4.6024000 2
23106 23107 23108 23109 1 180.0000771 15.1670000 2
23106 23107 23108 23110 1 180.0000771 15.1670000 2
23109 23107 23108 23110 4 180.0000771 4.6024000 2
23106 23107 23116 23108 4 180.0000771 4.6024000 2
23106 23107 23116 23114 1 180.0000771 15.1670000 2
23106 23107 23116 23117 1 180.0000771 15.1670000 2
23108 23107 23116 23114 1 180.0000771 15.1670000 2
23108 23107 23116 23117 1 180.0000771 15.1670000 2
23109 23108 23107 23116 1 180.0000771 15.1670000 2
23110 23108 23107 23116 1 180.0000771 15.1670000 2
23107 23108 23110 23111 1 180.0000771 15.1670000 2
23107 23108 23110 23112 1 180.0000771 15.1670000 2
23109 23108 23110 23111 1 180.0000771 15.1670000 2
23109 23108 23110 23112 1 180.0000771 15.1670000 2
23108 23110 23112 23113 1 180.0000771 15.1670000 2
23108 23110 23112 23114 1 180.0000771 15.1670000 2
23111 23110 23112 23113 1 180.0000771 15.1670000 2
23111 23110 23112 23114 1 180.0000771 15.1670000 2
23108 23112 23110 23111 4 180.0000771 4.6024000 2
23110 23112 23114 23115 1 180.0000771 15.1670000 2
23110 23112 23114 23116 1 180.0000771 15.1670000 2
23113 23112 23114 23115 1 180.0000771 15.1670000 2
23113 23112 23114 23116 1 180.0000771 15.1670000 2
23110 23114 23112 23113 4 180.0000771 4.6024000 2
23107 23114 23116 23117 4 180.0000771 4.6024000 2
23112 23114 23116 23117 1 180.0000771 15.1670000 2
23115 23114 23116 23117 1 180.0000771 15.1670000 2
23107 23116 23114 23112 1 180.0000771 15.1670000 2
23107 23116 23114 23115 1 180.0000771 15.1670000 2
23112 23116 23114 23115 4 180.0000771 4.6024000 2
23118 23119 23120 23121 1 180.0000771 15.1670000 2
23118 23119 23120 23122 1 180.0000771 15.1670000 2
23121 23119 23120 23122 4 180.0000771 4.6024000 2
23118 23119 23128 23120 4 180.0000771 4.6024000 2
23118 23119 23128 23126 1 180.0000771 15.1670000 2
23118 23119 23128 23129 1 180.0000771 15.1670000 2
23120 23119 23128 23126 1 180.0000771 15.1670000 2
23120 23119 23128 23129 1 180.0000771 15.1670000 2
23121 23120 23119 23128 1 180.0000771 15.1670000 2
23122 23120 23119 23128 1 180.0000771 15.1670000 2
23119 23120 23122 23123 1 180.0000771 15.1670000 2
23119 23120 23122 23124 1 180.0000771 15.1670000 2
23121 23120 23122 23123 1 180.0000771 15.1670000 2
23121 23120 23122 23124 1 180.0000771 15.1670000 2
23120 23122 23124 23125 1 180.0000771 15.1670000 2
23120 23122 23124 23126 1 180.0000771 15.1670000 2
23123 23122 23124 23125 1 180.0000771 15.1670000 2
23123 23122 23124 23126 1 180.0000771 15.1670000 2
23120 23124 23122 23123 4 180.0000771 4.6024000 2
23122 23124 23126 23127 1 180.0000771 15.1670000 2
23122 23124 23126 23128 1 180.0000771 15.1670000 2
23125 23124 23126 23127 1 180.0000771 15.1670000 2
23125 23124 23126 23128 1 180.0000771 15.1670000 2
23122 23126 23124 23125 4 180.0000771 4.6024000 2
23119 23126 23128 23129 4 180.0000771 4.6024000 2
23124 23126 23128 23129 1 180.0000771 15.1670000 2
23127 23126 23128 23129 1 180.0000771 15.1670000 2
23119 23128 23126 23124 1 180.0000771 15.1670000 2
23119 23128 23126 23127 1 180.0000771 15.1670000 2
23124 23128 23126 23127 4 180.0000771 4.6024000 2
23130 23131 23132 23133 1 180.0000771 15.1670000 2
23130 23131 23132 23134 1 180.0000771 15.1670000 2
23133 23131 23132 23134 4 180.0000771 4.6024000 2
23130 23131 23140 23132 4 180.0000771 4.6024000 2
23130 23131 23140 23138 1 180.0000771 15.1670000 2
23130 23131 23140 23141 1 180.0000771 15.1670000 2
23132 23131 23140 23138 1 180.0000771 15.1670000 2
23132 23131 23140 23141 1 180.0000771 15.1670000 2
23133 23132 23131 23140 1 180.0000771 15.1670000 2
23134 23132 23131 23140 1 180.0000771 15.1670000 2
23131 23132 23134 23135 1 180.0000771 15.1670000 2
23131 23132 23134 23136 1 180.0000771 15.1670000 2
23133 23132 23134 23135 1 180.0000771 15.1670000 2
23133 23132 23134 23136 1 180.0000771 15.1670000 2
23132 23134 23136 23137 1 180.0000771 15.1670000 2
23132 23134 23136 23138 1 180.0000771 15.1670000 2
23135 23134 23136 23137 1 180.0000771 15.1670000 2
23135 23134 23136 23138 1 180.0000771 15.1670000 2
23132 23136 23134 23135 4 180.0000771 4.6024000 2
23134 23136 23138 23139 1 180.0000771 15.1670000 2
23134 23136 23138 23140 1 180.0000771 15.1670000 2
23137 23136 23138 23139 1 180.0000771 15.1670000 2
23137 23136 23138 23140 1 180.0000771 15.1670000 2
23134 23138 23136 23137 4 180.0000771 4.6024000 2
23131 23138 23140 23141 4 180.0000771 4.6024000 2
23136 23138 23140 23141 1 180.0000771 15.1670000 2
23139 23138 23140 23141 1 180.0000771 15.1670000 2
23131 23140 23138 23136 1 180.0000771 15.1670000 2
23131 23140 23138 23139 1 180.0000771 15.1670000 2
23136 23140 23138 23139 4 180.0000771 4.6024000 2
23142 23143 23144 23145 1 180.0000771 15.1670000 2
23142 23143 23144 23146 1 180.0000771 15.1670000 2
23145 23143 23144 23146 4 180.0000771 4.6024000 2
23142 23143 23152 23144 4 180.0000771 4.6024000 2
23142 23143 23152 23150 1 180.0000771 15.1670000 2
23142 23143 23152 23153 1 180.0000771 15.1670000 2
23144 23143 23152 23150 1 180.0000771 15.1670000 2
23144 23143 23152 23153 1 180.0000771 15.1670000 2
23145 23144 23143 23152 1 180.0000771 15.1670000 2
23146 23144 23143 23152 1 180.0000771 15.1670000 2
23143 23144 23146 23147 1 180.0000771 15.1670000 2
23143 23144 23146 23148 1 180.0000771 15.1670000 2
23145 23144 23146 23147 1 180.0000771 15.1670000 2
23145 23144 23146 23148 1 180.0000771 15.1670000 2
23144 23146 23148 23149 1 180.0000771 15.1670000 2
23144 23146 23148 23150 1 180.0000771 15.1670000 2
23147 23146 23148 23149 1 180.0000771 15.1670000 2
23147 23146 23148 23150 1 180.0000771 15.1670000 2
23144 23148 23146 23147 4 180.0000771 4.6024000 2
23146 23148 23150 23151 1 180.0000771 15.1670000 2
23146 23148 23150 23152 1 180.0000771 15.1670000 2
23149 23148 23150 23151 1 180.0000771 15.1670000 2
23149 23148 23150 23152 1 180.0000771 15.1670000 2
23146 23150 23148 23149 4 180.0000771 4.6024000 2
23143 23150 23152 23153 4 180.0000771 4.6024000 2
23148 23150 23152 23153 1 180.0000771 15.1670000 2
23151 23150 23152 23153 1 180.0000771 15.1670000 2
23143 23152 23150 23148 1 180.0000771 15.1670000 2
23143 23152 23150 23151 1 180.0000771 15.1670000 2
23148 23152 23150 23151 4 180.0000771 4.6024000 2
23154 23155 23156 23157 1 180.0000771 15.1670000 2
23154 23155 23156 23158 1 180.0000771 15.1670000 2
23157 23155 23156 23158 4 180.0000771 4.6024000 2
23154 23155 23164 23156 4 180.0000771 4.6024000 2
23154 23155 23164 23162 1 180.0000771 15.1670000 2
23154 23155 23164 23165 1 180.0000771 15.1670000 2
23156 23155 23164 23162 1 180.0000771 15.1670000 2
23156 23155 23164 23165 1 180.0000771 15.1670000 2
23157 23156 23155 23164 1 180.0000771 15.1670000 2
23158 23156 23155 23164 1 180.0000771 15.1670000 2
23155 23156 23158 23159 1 180.0000771 15.1670000 2
23155 23156 23158 23160 1 180.0000771 15.1670000 2
23157 23156 23158 23159 1 180.0000771 15.1670000 2
23157 23156 23158 23160 1 180.0000771 15.1670000 2
23156 23158 23160 23161 1 180.0000771 15.1670000 2
23156 23158 23160 23162 1 180.0000771 15.1670000 2
23159 23158 23160 23161 1 180.0000771 15.1670000 2
23159 23158 23160 23162 1 180.0000771 15.1670000 2
23156 23160 23158 23159 4 180.0000771 4.6024000 2
23158 23160 23162 23163 1 180.0000771 15.1670000 2
23158 23160 23162 23164 1 180.0000771 15.1670000 2
23161 23160 23162 23163 1 180.0000771 15.1670000 2
23161 23160 23162 23164 1 180.0000771 15.1670000 2
23158 23162 23160 23161 4 180.0000771 4.6024000 2
23155 23162 23164 23165 4 180.0000771 4.6024000 2
23160 23162 23164 23165 1 180.0000771 15.1670000 2
23163 23162 23164 23165 1 180.0000771 15.1670000 2
23155 23164 23162 23160 1 180.0000771 15.1670000 2
23155 23164 23162 23163 1 180.0000771 15.1670000 2
23160 23164 23162 23163 4 180.0000771 4.6024000 2
23166 23167 23168 23169 1 180.0000771 15.1670000 2
23166 23167 23168 23170 1 180.0000771 15.1670000 2
23169 23167 23168 23170 4 180.0000771 4.6024000 2
23166 23167 23176 23168 4 180.0000771 4.6024000 2
23166 23167 23176 23174 1 180.0000771 15.1670000 2
23166 23167 23176 23177 1 180.0000771 15.1670000 2
23168 23167 23176 23174 1 180.0000771 15.1670000 2
23168 23167 23176 23177 1 180.0000771 15.1670000 2
23169 23168 23167 23176 1 180.0000771 15.1670000 2
23170 23168 23167 23176 1 180.0000771 15.1670000 2
23167 23168 23170 23171 1 180.0000771 15.1670000 2
23167 23168 23170 23172 1 180.0000771 15.1670000 2
23169 23168 23170 23171 1 180.0000771 15.1670000 2
23169 23168 23170 23172 1 180.0000771 15.1670000 2
23168 23170 23172 23173 1 180.0000771 15.1670000 2
23168 23170 23172 23174 1 180.0000771 15.1670000 2
23171 23170 23172 23173 1 180.0000771 15.1670000 2
23171 23170 23172 23174 1 180.0000771 15.1670000 2
23168 23172 23170 23171 4 180.0000771 4.6024000 2
23170 23172 23174 23175 1 180.0000771 15.1670000 2
23170 23172 23174 23176 1 180.0000771 15.1670000 2
23173 23172 23174 23175 1 180.0000771 15.1670000 2
23173 23172 23174 23176 1 180.0000771 15.1670000 2
23170 23174 23172 23173 4 180.0000771 4.6024000 2
23167 23174 23176 23177 4 180.0000771 4.6024000 2
23172 23174 23176 23177 1 180.0000771 15.1670000 2
23175 23174 23176 23177 1 180.0000771 15.1670000 2
23167 23176 23174 23172 1 180.0000771 15.1670000 2
23167 23176 23174 23175 1 180.0000771 15.1670000 2
23172 23176 23174 23175 4 180.0000771 4.6024000 2
23178 23179 23180 23181 1 180.0000771 15.1670000 2
23178 23179 23180 23182 1 180.0000771 15.1670000 2
23181 23179 23180 23182 4 180.0000771 4.6024000 2
23178 23179 23188 23180 4 180.0000771 4.6024000 2
23178 23179 23188 23186 1 180.0000771 15.1670000 2
23178 23179 23188 23189 1 180.0000771 15.1670000 2
23180 23179 23188 23186 1 180.0000771 15.1670000 2
23180 23179 23188 23189 1 180.0000771 15.1670000 2
23181 23180 23179 23188 1 180.0000771 15.1670000 2
23182 23180 23179 23188 1 180.0000771 15.1670000 2
23179 23180 23182 23183 1 180.0000771 15.1670000 2
23179 23180 23182 23184 1 180.0000771 15.1670000 2
23181 23180 23182 23183 1 180.0000771 15.1670000 2
23181 23180 23182 23184 1 180.0000771 15.1670000 2
23180 23182 23184 23185 1 180.0000771 15.1670000 2
23180 23182 23184 23186 1 180.0000771 15.1670000 2
23183 23182 23184 23185 1 180.0000771 15.1670000 2
23183 23182 23184 23186 1 180.0000771 15.1670000 2
23180 23184 23182 23183 4 180.0000771 4.6024000 2
23182 23184 23186 23187 1 180.0000771 15.1670000 2
23182 23184 23186 23188 1 180.0000771 15.1670000 2
23185 23184 23186 23187 1 180.0000771 15.1670000 2
23185 23184 23186 23188 1 180.0000771 15.1670000 2
23182 23186 23184 23185 4 180.0000771 4.6024000 2
23179 23186 23188 23189 4 180.0000771 4.6024000 2
23184 23186 23188 23189 1 180.0000771 15.1670000 2
23187 23186 23188 23189 1 180.0000771 15.1670000 2
23179 23188 23186 23184 1 180.0000771 15.1670000 2
23179 23188 23186 23187 1 180.0000771 15.1670000 2
23184 23188 23186 23187 4 180.0000771 4.6024000 2
23190 23191 23192 23193 1 180.0000771 15.1670000 2
23190 23191 23192 23194 1 180.0000771 15.1670000 2
23193 23191 23192 23194 4 180.0000771 4.6024000 2
23190 23191 23200 23192 4 180.0000771 4.6024000 2
23190 23191 23200 23198 1 180.0000771 15.1670000 2
23190 23191 23200 23201 1 180.0000771 15.1670000 2
23192 23191 23200 23198 1 180.0000771 15.1670000 2
23192 23191 23200 23201 1 180.0000771 15.1670000 2
23193 23192 23191 23200 1 180.0000771 15.1670000 2
23194 23192 23191 23200 1 180.0000771 15.1670000 2
23191 23192 23194 23195 1 180.0000771 15.1670000 2
23191 23192 23194 23196 1 180.0000771 15.1670000 2
23193 23192 23194 23195 1 180.0000771 15.1670000 2
23193 23192 23194 23196 1 180.0000771 15.1670000 2
23192 23194 23196 23197 1 180.0000771 15.1670000 2
23192 23194 23196 23198 1 180.0000771 15.1670000 2
23195 23194 23196 23197 1 180.0000771 15.1670000 2
23195 23194 23196 23198 1 180.0000771 15.1670000 2
23192 23196 23194 23195 4 180.0000771 4.6024000 2
23194 23196 23198 23199 1 180.0000771 15.1670000 2
23194 23196 23198 23200 1 180.0000771 15.1670000 2
23197 23196 23198 23199 1 180.0000771 15.1670000 2
23197 23196 23198 23200 1 180.0000771 15.1670000 2
23194 23198 23196 23197 4 180.0000771 4.6024000 2
23191 23198 23200 23201 4 180.0000771 4.6024000 2
23196 23198 23200 23201 1 180.0000771 15.1670000 2
23199 23198 23200 23201 1 180.0000771 15.1670000 2
23191 23200 23198 23196 1 180.0000771 15.1670000 2
23191 23200 23198 23199 1 180.0000771 15.1670000 2
23196 23200 23198 23199 4 180.0000771 4.6024000 2
23202 23203 23204 23205 1 180.0000771 15.1670000 2
23202 23203 23204 23206 1 180.0000771 15.1670000 2
23205 23203 23204 23206 4 180.0000771 4.6024000 2
23202 23203 23212 23204 4 180.0000771 4.6024000 2
23202 23203 23212 23210 1 180.0000771 15.1670000 2
23202 23203 23212 23213 1 180.0000771 15.1670000 2
23204 23203 23212 23210 1 180.0000771 15.1670000 2
23204 23203 23212 23213 1 180.0000771 15.1670000 2
23205 23204 23203 23212 1 180.0000771 15.1670000 2
23206 23204 23203 23212 1 180.0000771 15.1670000 2
23203 23204 23206 23207 1 180.0000771 15.1670000 2
23203 23204 23206 23208 1 180.0000771 15.1670000 2
23205 23204 23206 23207 1 180.0000771 15.1670000 2
23205 23204 23206 23208 1 180.0000771 15.1670000 2
23204 23206 23208 23209 1 180.0000771 15.1670000 2
23204 23206 23208 23210 1 180.0000771 15.1670000 2
23207 23206 23208 23209 1 180.0000771 15.1670000 2
23207 23206 23208 23210 1 180.0000771 15.1670000 2
23204 23208 23206 23207 4 180.0000771 4.6024000 2
23206 23208 23210 23211 1 180.0000771 15.1670000 2
23206 23208 23210 23212 1 180.0000771 15.1670000 2
23209 23208 23210 23211 1 180.0000771 15.1670000 2
23209 23208 23210 23212 1 180.0000771 15.1670000 2
23206 23210 23208 23209 4 180.0000771 4.6024000 2
23203 23210 23212 23213 4 180.0000771 4.6024000 2
23208 23210 23212 23213 1 180.0000771 15.1670000 2
23211 23210 23212 23213 1 180.0000771 15.1670000 2
23203 23212 23210 23208 1 180.0000771 15.1670000 2
23203 23212 23210 23211 1 180.0000771 15.1670000 2
23208 23212 23210 23211 4 180.0000771 4.6024000 2
23214 23215 23216 23217 1 180.0000771 15.1670000 2
23214 23215 23216 23218 1 180.0000771 15.1670000 2
23217 23215 23216 23218 4 180.0000771 4.6024000 2
23214 23215 23224 23216 4 180.0000771 4.6024000 2
23214 23215 23224 23222 1 180.0000771 15.1670000 2
23214 23215 23224 23225 1 180.0000771 15.1670000 2
23216 23215 23224 23222 1 180.0000771 15.1670000 2
23216 23215 23224 23225 1 180.0000771 15.1670000 2
23217 23216 23215 23224 1 180.0000771 15.1670000 2
23218 23216 23215 23224 1 180.0000771 15.1670000 2
23215 23216 23218 23219 1 180.0000771 15.1670000 2
23215 23216 23218 23220 1 180.0000771 15.1670000 2
23217 23216 23218 23219 1 180.0000771 15.1670000 2
23217 23216 23218 23220 1 180.0000771 15.1670000 2
23216 23218 23220 23221 1 180.0000771 15.1670000 2
23216 23218 23220 23222 1 180.0000771 15.1670000 2
23219 23218 23220 23221 1 180.0000771 15.1670000 2
23219 23218 23220 23222 1 180.0000771 15.1670000 2
23216 23220 23218 23219 4 180.0000771 4.6024000 2
23218 23220 23222 23223 1 180.0000771 15.1670000 2
23218 23220 23222 23224 1 180.0000771 15.1670000 2
23221 23220 23222 23223 1 180.0000771 15.1670000 2
23221 23220 23222 23224 1 180.0000771 15.1670000 2
23218 23222 23220 23221 4 180.0000771 4.6024000 2
23215 23222 23224 23225 4 180.0000771 4.6024000 2
23220 23222 23224 23225 1 180.0000771 15.1670000 2
23223 23222 23224 23225 1 180.0000771 15.1670000 2
23215 23224 23222 23220 1 180.0000771 15.1670000 2
23215 23224 23222 23223 1 180.0000771 15.1670000 2
23220 23224 23222 23223 4 180.0000771 4.6024000 2
23226 23227 23228 23229 1 180.0000771 15.1670000 2
23226 23227 23228 23230 1 180.0000771 15.1670000 2
23229 23227 23228 23230 4 180.0000771 4.6024000 2
23226 23227 23236 23228 4 180.0000771 4.6024000 2
23226 23227 23236 23234 1 180.0000771 15.1670000 2
23226 23227 23236 23237 1 180.0000771 15.1670000 2
23228 23227 23236 23234 1 180.0000771 15.1670000 2
23228 23227 23236 23237 1 180.0000771 15.1670000 2
23229 23228 23227 23236 1 180.0000771 15.1670000 2
23230 23228 23227 23236 1 180.0000771 15.1670000 2
23227 23228 23230 23231 1 180.0000771 15.1670000 2
23227 23228 23230 23232 1 180.0000771 15.1670000 2
23229 23228 23230 23231 1 180.0000771 15.1670000 2
23229 23228 23230 23232 1 180.0000771 15.1670000 2
23228 23230 23232 23233 1 180.0000771 15.1670000 2
23228 23230 23232 23234 1 180.0000771 15.1670000 2
23231 23230 23232 23233 1 180.0000771 15.1670000 2
23231 23230 23232 23234 1 180.0000771 15.1670000 2
23228 23232 23230 23231 4 180.0000771 4.6024000 2
23230 23232 23234 23235 1 180.0000771 15.1670000 2
23230 23232 23234 23236 1 180.0000771 15.1670000 2
23233 23232 23234 23235 1 180.0000771 15.1670000 2
23233 23232 23234 23236 1 180.0000771 15.1670000 2
23230 23234 23232 23233 4 180.0000771 4.6024000 2
23227 23234 23236 23237 4 180.0000771 4.6024000 2
23232 23234 23236 23237 1 180.0000771 15.1670000 2
23235 23234 23236 23237 1 180.0000771 15.1670000 2
23227 23236 23234 23232 1 180.0000771 15.1670000 2
23227 23236 23234 23235 1 180.0000771 15.1670000 2
23232 23236 23234 23235 4 180.0000771 4.6024000 2
23238 23239 23240 23241 1 180.0000771 15.1670000 2
23238 23239 23240 23242 1 180.0000771 15.1670000 2
23241 23239 23240 23242 4 180.0000771 4.6024000 2
23238 23239 23248 23240 4 180.0000771 4.6024000 2
23238 23239 23248 23246 1 180.0000771 15.1670000 2
23238 23239 23248 23249 1 180.0000771 15.1670000 2
23240 23239 23248 23246 1 180.0000771 15.1670000 2
23240 23239 23248 23249 1 180.0000771 15.1670000 2
23241 23240 23239 23248 1 180.0000771 15.1670000 2
23242 23240 23239 23248 1 180.0000771 15.1670000 2
23239 23240 23242 23243 1 180.0000771 15.1670000 2
23239 23240 23242 23244 1 180.0000771 15.1670000 2
23241 23240 23242 23243 1 180.0000771 15.1670000 2
23241 23240 23242 23244 1 180.0000771 15.1670000 2
23240 23242 23244 23245 1 180.0000771 15.1670000 2
23240 23242 23244 23246 1 180.0000771 15.1670000 2
23243 23242 23244 23245 1 180.0000771 15.1670000 2
23243 23242 23244 23246 1 180.0000771 15.1670000 2
23240 23244 23242 23243 4 180.0000771 4.6024000 2
23242 23244 23246 23247 1 180.0000771 15.1670000 2
23242 23244 23246 23248 1 180.0000771 15.1670000 2
23245 23244 23246 23247 1 180.0000771 15.1670000 2
23245 23244 23246 23248 1 180.0000771 15.1670000 2
23242 23246 23244 23245 4 180.0000771 4.6024000 2
23239 23246 23248 23249 4 180.0000771 4.6024000 2
23244 23246 23248 23249 1 180.0000771 15.1670000 2
23247 23246 23248 23249 1 180.0000771 15.1670000 2
23239 23248 23246 23244 1 180.0000771 15.1670000 2
23239 23248 23246 23247 1 180.0000771 15.1670000 2
23244 23248 23246 23247 4 180.0000771 4.6024000 2
23250 23251 23252 23253 1 180.0000771 15.1670000 2
23250 23251 23252 23254 1 180.0000771 15.1670000 2
23253 23251 23252 23254 4 180.0000771 4.6024000 2
23250 23251 23260 23252 4 180.0000771 4.6024000 2
23250 23251 23260 23258 1 180.0000771 15.1670000 2
23250 23251 23260 23261 1 180.0000771 15.1670000 2
23252 23251 23260 23258 1 180.0000771 15.1670000 2
23252 23251 23260 23261 1 180.0000771 15.1670000 2
23253 23252 23251 23260 1 180.0000771 15.1670000 2
23254 23252 23251 23260 1 180.0000771 15.1670000 2
23251 23252 23254 23255 1 180.0000771 15.1670000 2
23251 23252 23254 23256 1 180.0000771 15.1670000 2
23253 23252 23254 23255 1 180.0000771 15.1670000 2
23253 23252 23254 23256 1 180.0000771 15.1670000 2
23252 23254 23256 23257 1 180.0000771 15.1670000 2
23252 23254 23256 23258 1 180.0000771 15.1670000 2
23255 23254 23256 23257 1 180.0000771 15.1670000 2
23255 23254 23256 23258 1 180.0000771 15.1670000 2
23252 23256 23254 23255 4 180.0000771 4.6024000 2
23254 23256 23258 23259 1 180.0000771 15.1670000 2
23254 23256 23258 23260 1 180.0000771 15.1670000 2
23257 23256 23258 23259 1 180.0000771 15.1670000 2
23257 23256 23258 23260 1 180.0000771 15.1670000 2
23254 23258 23256 23257 4 180.0000771 4.6024000 2
23251 23258 23260 23261 4 180.0000771 4.6024000 2
23256 23258 23260 23261 1 180.0000771 15.1670000 2
23259 23258 23260 23261 1 180.0000771 15.1670000 2
23251 23260 23258 23256 1 180.0000771 15.1670000 2
23251 23260 23258 23259 1 180.0000771 15.1670000 2
23256 23260 23258 23259 4 180.0000771 4.6024000 2
23262 23263 23264 23265 1 180.0000771 15.1670000 2
23262 23263 23264 23266 1 180.0000771 15.1670000 2
23265 23263 23264 23266 4 180.0000771 4.6024000 2
23262 23263 23272 23264 4 180.0000771 4.6024000 2
23262 23263 23272 23270 1 180.0000771 15.1670000 2
23262 23263 23272 23273 1 180.0000771 15.1670000 2
23264 23263 23272 23270 1 180.0000771 15.1670000 2
23264 23263 23272 23273 1 180.0000771 15.1670000 2
23265 23264 23263 23272 1 180.0000771 15.1670000 2
23266 23264 23263 23272 1 180.0000771 15.1670000 2
23263 23264 23266 23267 1 180.0000771 15.1670000 2
23263 23264 23266 23268 1 180.0000771 15.1670000 2
23265 23264 23266 23267 1 180.0000771 15.1670000 2
23265 23264 23266 23268 1 180.0000771 15.1670000 2
23264 23266 23268 23269 1 180.0000771 15.1670000 2
23264 23266 23268 23270 1 180.0000771 15.1670000 2
23267 23266 23268 23269 1 180.0000771 15.1670000 2
23267 23266 23268 23270 1 180.0000771 15.1670000 2
23264 23268 23266 23267 4 180.0000771 4.6024000 2
23266 23268 23270 23271 1 180.0000771 15.1670000 2
23266 23268 23270 23272 1 180.0000771 15.1670000 2
23269 23268 23270 23271 1 180.0000771 15.1670000 2
23269 23268 23270 23272 1 180.0000771 15.1670000 2
23266 23270 23268 23269 4 180.0000771 4.6024000 2
23263 23270 23272 23273 4 180.0000771 4.6024000 2
23268 23270 23272 23273 1 180.0000771 15.1670000 2
23271 23270 23272 23273 1 180.0000771 15.1670000 2
23263 23272 23270 23268 1 180.0000771 15.1670000 2
23263 23272 23270 23271 1 180.0000771 15.1670000 2
23268 23272 23270 23271 4 180.0000771 4.6024000 2
23274 23275 23276 23277 1 180.0000771 15.1670000 2
23274 23275 23276 23278 1 180.0000771 15.1670000 2
23277 23275 23276 23278 4 180.0000771 4.6024000 2
23274 23275 23284 23276 4 180.0000771 4.6024000 2
23274 23275 23284 23282 1 180.0000771 15.1670000 2
23274 23275 23284 23285 1 180.0000771 15.1670000 2
23276 23275 23284 23282 1 180.0000771 15.1670000 2
23276 23275 23284 23285 1 180.0000771 15.1670000 2
23277 23276 23275 23284 1 180.0000771 15.1670000 2
23278 23276 23275 23284 1 180.0000771 15.1670000 2
23275 23276 23278 23279 1 180.0000771 15.1670000 2
23275 23276 23278 23280 1 180.0000771 15.1670000 2
23277 23276 23278 23279 1 180.0000771 15.1670000 2
23277 23276 23278 23280 1 180.0000771 15.1670000 2
23276 23278 23280 23281 1 180.0000771 15.1670000 2
23276 23278 23280 23282 1 180.0000771 15.1670000 2
23279 23278 23280 23281 1 180.0000771 15.1670000 2
23279 23278 23280 23282 1 180.0000771 15.1670000 2
23276 23280 23278 23279 4 180.0000771 4.6024000 2
23278 23280 23282 23283 1 180.0000771 15.1670000 2
23278 23280 23282 23284 1 180.0000771 15.1670000 2
23281 23280 23282 23283 1 180.0000771 15.1670000 2
23281 23280 23282 23284 1 180.0000771 15.1670000 2
23278 23282 23280 23281 4 180.0000771 4.6024000 2
23275 23282 23284 23285 4 180.0000771 4.6024000 2
23280 23282 23284 23285 1 180.0000771 15.1670000 2
23283 23282 23284 23285 1 180.0000771 15.1670000 2
23275 23284 23282 23280 1 180.0000771 15.1670000 2
23275 23284 23282 23283 1 180.0000771 15.1670000 2
23280 23284 23282 23283 4 180.0000771 4.6024000 2
23286 23287 23288 23289 1 180.0000771 15.1670000 2
23286 23287 23288 23290 1 180.0000771 15.1670000 2
23289 23287 23288 23290 4 180.0000771 4.6024000 2
23286 23287 23296 23288 4 180.0000771 4.6024000 2
23286 23287 23296 23294 1 180.0000771 15.1670000 2
23286 23287 23296 23297 1 180.0000771 15.1670000 2
23288 23287 23296 23294 1 180.0000771 15.1670000 2
23288 23287 23296 23297 1 180.0000771 15.1670000 2
23289 23288 23287 23296 1 180.0000771 15.1670000 2
23290 23288 23287 23296 1 180.0000771 15.1670000 2
23287 23288 23290 23291 1 180.0000771 15.1670000 2
23287 23288 23290 23292 1 180.0000771 15.1670000 2
23289 23288 23290 23291 1 180.0000771 15.1670000 2
23289 23288 23290 23292 1 180.0000771 15.1670000 2
23288 23290 23292 23293 1 180.0000771 15.1670000 2
23288 23290 23292 23294 1 180.0000771 15.1670000 2
23291 23290 23292 23293 1 180.0000771 15.1670000 2
23291 23290 23292 23294 1 180.0000771 15.1670000 2
23288 23292 23290 23291 4 180.0000771 4.6024000 2
23290 23292 23294 23295 1 180.0000771 15.1670000 2
23290 23292 23294 23296 1 180.0000771 15.1670000 2
23293 23292 23294 23295 1 180.0000771 15.1670000 2
23293 23292 23294 23296 1 180.0000771 15.1670000 2
23290 23294 23292 23293 4 180.0000771 4.6024000 2
23287 23294 23296 23297 4 180.0000771 4.6024000 2
23292 23294 23296 23297 1 180.0000771 15.1670000 2
23295 23294 23296 23297 1 180.0000771 15.1670000 2
23287 23296 23294 23292 1 180.0000771 15.1670000 2
23287 23296 23294 23295 1 180.0000771 15.1670000 2
23292 23296 23294 23295 4 180.0000771 4.6024000 2
23298 23299 23300 23301 1 180.0000771 15.1670000 2
23298 23299 23300 23302 1 180.0000771 15.1670000 2
23301 23299 23300 23302 4 180.0000771 4.6024000 2
23298 23299 23308 23300 4 180.0000771 4.6024000 2
23298 23299 23308 23306 1 180.0000771 15.1670000 2
23298 23299 23308 23309 1 180.0000771 15.1670000 2
23300 23299 23308 23306 1 180.0000771 15.1670000 2
23300 23299 23308 23309 1 180.0000771 15.1670000 2
23301 23300 23299 23308 1 180.0000771 15.1670000 2
23302 23300 23299 23308 1 180.0000771 15.1670000 2
23299 23300 23302 23303 1 180.0000771 15.1670000 2
23299 23300 23302 23304 1 180.0000771 15.1670000 2
23301 23300 23302 23303 1 180.0000771 15.1670000 2
23301 23300 23302 23304 1 180.0000771 15.1670000 2
23300 23302 23304 23305 1 180.0000771 15.1670000 2
23300 23302 23304 23306 1 180.0000771 15.1670000 2
23303 23302 23304 23305 1 180.0000771 15.1670000 2
23303 23302 23304 23306 1 180.0000771 15.1670000 2
23300 23304 23302 23303 4 180.0000771 4.6024000 2
23302 23304 23306 23307 1 180.0000771 15.1670000 2
23302 23304 23306 23308 1 180.0000771 15.1670000 2
23305 23304 23306 23307 1 180.0000771 15.1670000 2
23305 23304 23306 23308 1 180.0000771 15.1670000 2
23302 23306 23304 23305 4 180.0000771 4.6024000 2
23299 23306 23308 23309 4 180.0000771 4.6024000 2
23304 23306 23308 23309 1 180.0000771 15.1670000 2
23307 23306 23308 23309 1 180.0000771 15.1670000 2
23299 23308 23306 23304 1 180.0000771 15.1670000 2
23299 23308 23306 23307 1 180.0000771 15.1670000 2
23304 23308 23306 23307 4 180.0000771 4.6024000 2
23310 23311 23312 23313 1 180.0000771 15.1670000 2
23310 23311 23312 23314 1 180.0000771 15.1670000 2
23313 23311 23312 23314 4 180.0000771 4.6024000 2
23310 23311 23320 23312 4 180.0000771 4.6024000 2
23310 23311 23320 23318 1 180.0000771 15.1670000 2
23310 23311 23320 23321 1 180.0000771 15.1670000 2
23312 23311 23320 23318 1 180.0000771 15.1670000 2
23312 23311 23320 23321 1 180.0000771 15.1670000 2
23313 23312 23311 23320 1 180.0000771 15.1670000 2
23314 23312 23311 23320 1 180.0000771 15.1670000 2
23311 23312 23314 23315 1 180.0000771 15.1670000 2
23311 23312 23314 23316 1 180.0000771 15.1670000 2
23313 23312 23314 23315 1 180.0000771 15.1670000 2
23313 23312 23314 23316 1 180.0000771 15.1670000 2
23312 23314 23316 23317 1 180.0000771 15.1670000 2
23312 23314 23316 23318 1 180.0000771 15.1670000 2
23315 23314 23316 23317 1 180.0000771 15.1670000 2
23315 23314 23316 23318 1 180.0000771 15.1670000 2
23312 23316 23314 23315 4 180.0000771 4.6024000 2
23314 23316 23318 23319 1 180.0000771 15.1670000 2
23314 23316 23318 23320 1 180.0000771 15.1670000 2
23317 23316 23318 23319 1 180.0000771 15.1670000 2
23317 23316 23318 23320 1 180.0000771 15.1670000 2
23314 23318 23316 23317 4 180.0000771 4.6024000 2
23311 23318 23320 23321 4 180.0000771 4.6024000 2
23316 23318 23320 23321 1 180.0000771 15.1670000 2
23319 23318 23320 23321 1 180.0000771 15.1670000 2
23311 23320 23318 23316 1 180.0000771 15.1670000 2
23311 23320 23318 23319 1 180.0000771 15.1670000 2
23316 23320 23318 23319 4 180.0000771 4.6024000 2
23322 23323 23324 23325 1 180.0000771 15.1670000 2
23322 23323 23324 23326 1 180.0000771 15.1670000 2
23325 23323 23324 23326 4 180.0000771 4.6024000 2
23322 23323 23332 23324 4 180.0000771 4.6024000 2
23322 23323 23332 23330 1 180.0000771 15.1670000 2
23322 23323 23332 23333 1 180.0000771 15.1670000 2
23324 23323 23332 23330 1 180.0000771 15.1670000 2
23324 23323 23332 23333 1 180.0000771 15.1670000 2
23325 23324 23323 23332 1 180.0000771 15.1670000 2
23326 23324 23323 23332 1 180.0000771 15.1670000 2
23323 23324 23326 23327 1 180.0000771 15.1670000 2
23323 23324 23326 23328 1 180.0000771 15.1670000 2
23325 23324 23326 23327 1 180.0000771 15.1670000 2
23325 23324 23326 23328 1 180.0000771 15.1670000 2
23324 23326 23328 23329 1 180.0000771 15.1670000 2
23324 23326 23328 23330 1 180.0000771 15.1670000 2
23327 23326 23328 23329 1 180.0000771 15.1670000 2
23327 23326 23328 23330 1 180.0000771 15.1670000 2
23324 23328 23326 23327 4 180.0000771 4.6024000 2
23326 23328 23330 23331 1 180.0000771 15.1670000 2
23326 23328 23330 23332 1 180.0000771 15.1670000 2
23329 23328 23330 23331 1 180.0000771 15.1670000 2
23329 23328 23330 23332 1 180.0000771 15.1670000 2
23326 23330 23328 23329 4 180.0000771 4.6024000 2
23323 23330 23332 23333 4 180.0000771 4.6024000 2
23328 23330 23332 23333 1 180.0000771 15.1670000 2
23331 23330 23332 23333 1 180.0000771 15.1670000 2
23323 23332 23330 23328 1 180.0000771 15.1670000 2
23323 23332 23330 23331 1 180.0000771 15.1670000 2
23328 23332 23330 23331 4 180.0000771 4.6024000 2
23334 23335 23336 23337 1 180.0000771 15.1670000 2
23334 23335 23336 23338 1 180.0000771 15.1670000 2
23337 23335 23336 23338 4 180.0000771 4.6024000 2
23334 23335 23344 23336 4 180.0000771 4.6024000 2
23334 23335 23344 23342 1 180.0000771 15.1670000 2
23334 23335 23344 23345 1 180.0000771 15.1670000 2
23336 23335 23344 23342 1 180.0000771 15.1670000 2
23336 23335 23344 23345 1 180.0000771 15.1670000 2
23337 23336 23335 23344 1 180.0000771 15.1670000 2
23338 23336 23335 23344 1 180.0000771 15.1670000 2
23335 23336 23338 23339 1 180.0000771 15.1670000 2
23335 23336 23338 23340 1 180.0000771 15.1670000 2
23337 23336 23338 23339 1 180.0000771 15.1670000 2
23337 23336 23338 23340 1 180.0000771 15.1670000 2
23336 23338 23340 23341 1 180.0000771 15.1670000 2
23336 23338 23340 23342 1 180.0000771 15.1670000 2
23339 23338 23340 23341 1 180.0000771 15.1670000 2
23339 23338 23340 23342 1 180.0000771 15.1670000 2
23336 23340 23338 23339 4 180.0000771 4.6024000 2
23338 23340 23342 23343 1 180.0000771 15.1670000 2
23338 23340 23342 23344 1 180.0000771 15.1670000 2
23341 23340 23342 23343 1 180.0000771 15.1670000 2
23341 23340 23342 23344 1 180.0000771 15.1670000 2
23338 23342 23340 23341 4 180.0000771 4.6024000 2
23335 23342 23344 23345 4 180.0000771 4.6024000 2
23340 23342 23344 23345 1 180.0000771 15.1670000 2
23343 23342 23344 23345 1 180.0000771 15.1670000 2
23335 23344 23342 23340 1 180.0000771 15.1670000 2
23335 23344 23342 23343 1 180.0000771 15.1670000 2
23340 23344 23342 23343 4 180.0000771 4.6024000 2
23346 23347 23348 23349 1 180.0000771 15.1670000 2
23346 23347 23348 23350 1 180.0000771 15.1670000 2
23349 23347 23348 23350 4 180.0000771 4.6024000 2
23346 23347 23356 23348 4 180.0000771 4.6024000 2
23346 23347 23356 23354 1 180.0000771 15.1670000 2
23346 23347 23356 23357 1 180.0000771 15.1670000 2
23348 23347 23356 23354 1 180.0000771 15.1670000 2
23348 23347 23356 23357 1 180.0000771 15.1670000 2
23349 23348 23347 23356 1 180.0000771 15.1670000 2
23350 23348 23347 23356 1 180.0000771 15.1670000 2
23347 23348 23350 23351 1 180.0000771 15.1670000 2
23347 23348 23350 23352 1 180.0000771 15.1670000 2
23349 23348 23350 23351 1 180.0000771 15.1670000 2
23349 23348 23350 23352 1 180.0000771 15.1670000 2
23348 23350 23352 23353 1 180.0000771 15.1670000 2
23348 23350 23352 23354 1 180.0000771 15.1670000 2
23351 23350 23352 23353 1 180.0000771 15.1670000 2
23351 23350 23352 23354 1 180.0000771 15.1670000 2
23348 23352 23350 23351 4 180.0000771 4.6024000 2
23350 23352 23354 23355 1 180.0000771 15.1670000 2
23350 23352 23354 23356 1 180.0000771 15.1670000 2
23353 23352 23354 23355 1 180.0000771 15.1670000 2
23353 23352 23354 23356 1 180.0000771 15.1670000 2
23350 23354 23352 23353 4 180.0000771 4.6024000 2
23347 23354 23356 23357 4 180.0000771 4.6024000 2
23352 23354 23356 23357 1 180.0000771 15.1670000 2
23355 23354 23356 23357 1 180.0000771 15.1670000 2
23347 23356 23354 23352 1 180.0000771 15.1670000 2
23347 23356 23354 23355 1 180.0000771 15.1670000 2
23352 23356 23354 23355 4 180.0000771 4.6024000 2
23358 23359 23360 23361 1 180.0000771 15.1670000 2
23358 23359 23360 23362 1 180.0000771 15.1670000 2
23361 23359 23360 23362 4 180.0000771 4.6024000 2
23358 23359 23368 23360 4 180.0000771 4.6024000 2
23358 23359 23368 23366 1 180.0000771 15.1670000 2
23358 23359 23368 23369 1 180.0000771 15.1670000 2
23360 23359 23368 23366 1 180.0000771 15.1670000 2
23360 23359 23368 23369 1 180.0000771 15.1670000 2
23361 23360 23359 23368 1 180.0000771 15.1670000 2
23362 23360 23359 23368 1 180.0000771 15.1670000 2
23359 23360 23362 23363 1 180.0000771 15.1670000 2
23359 23360 23362 23364 1 180.0000771 15.1670000 2
23361 23360 23362 23363 1 180.0000771 15.1670000 2
23361 23360 23362 23364 1 180.0000771 15.1670000 2
23360 23362 23364 23365 1 180.0000771 15.1670000 2
23360 23362 23364 23366 1 180.0000771 15.1670000 2
23363 23362 23364 23365 1 180.0000771 15.1670000 2
23363 23362 23364 23366 1 180.0000771 15.1670000 2
23360 23364 23362 23363 4 180.0000771 4.6024000 2
23362 23364 23366 23367 1 180.0000771 15.1670000 2
23362 23364 23366 23368 1 180.0000771 15.1670000 2
23365 23364 23366 23367 1 180.0000771 15.1670000 2
23365 23364 23366 23368 1 180.0000771 15.1670000 2
23362 23366 23364 23365 4 180.0000771 4.6024000 2
23359 23366 23368 23369 4 180.0000771 4.6024000 2
23364 23366 23368 23369 1 180.0000771 15.1670000 2
23367 23366 23368 23369 1 180.0000771 15.1670000 2
23359 23368 23366 23364 1 180.0000771 15.1670000 2
23359 23368 23366 23367 1 180.0000771 15.1670000 2
23364 23368 23366 23367 4 180.0000771 4.6024000 2
23370 23371 23372 23373 1 180.0000771 15.1670000 2
23370 23371 23372 23374 1 180.0000771 15.1670000 2
23373 23371 23372 23374 4 180.0000771 4.6024000 2
23370 23371 23380 23372 4 180.0000771 4.6024000 2
23370 23371 23380 23378 1 180.0000771 15.1670000 2
23370 23371 23380 23381 1 180.0000771 15.1670000 2
23372 23371 23380 23378 1 180.0000771 15.1670000 2
23372 23371 23380 23381 1 180.0000771 15.1670000 2
23373 23372 23371 23380 1 180.0000771 15.1670000 2
23374 23372 23371 23380 1 180.0000771 15.1670000 2
23371 23372 23374 23375 1 180.0000771 15.1670000 2
23371 23372 23374 23376 1 180.0000771 15.1670000 2
23373 23372 23374 23375 1 180.0000771 15.1670000 2
23373 23372 23374 23376 1 180.0000771 15.1670000 2
23372 23374 23376 23377 1 180.0000771 15.1670000 2
23372 23374 23376 23378 1 180.0000771 15.1670000 2
23375 23374 23376 23377 1 180.0000771 15.1670000 2
23375 23374 23376 23378 1 180.0000771 15.1670000 2
23372 23376 23374 23375 4 180.0000771 4.6024000 2
23374 23376 23378 23379 1 180.0000771 15.1670000 2
23374 23376 23378 23380 1 180.0000771 15.1670000 2
23377 23376 23378 23379 1 180.0000771 15.1670000 2
23377 23376 23378 23380 1 180.0000771 15.1670000 2
23374 23378 23376 23377 4 180.0000771 4.6024000 2
23371 23378 23380 23381 4 180.0000771 4.6024000 2
23376 23378 23380 23381 1 180.0000771 15.1670000 2
23379 23378 23380 23381 1 180.0000771 15.1670000 2
23371 23380 23378 23376 1 180.0000771 15.1670000 2
23371 23380 23378 23379 1 180.0000771 15.1670000 2
23376 23380 23378 23379 4 180.0000771 4.6024000 2
23382 23383 23384 23385 1 180.0000771 15.1670000 2
23382 23383 23384 23386 1 180.0000771 15.1670000 2
23385 23383 23384 23386 4 180.0000771 4.6024000 2
23382 23383 23392 23384 4 180.0000771 4.6024000 2
23382 23383 23392 23390 1 180.0000771 15.1670000 2
23382 23383 23392 23393 1 180.0000771 15.1670000 2
23384 23383 23392 23390 1 180.0000771 15.1670000 2
23384 23383 23392 23393 1 180.0000771 15.1670000 2
23385 23384 23383 23392 1 180.0000771 15.1670000 2
23386 23384 23383 23392 1 180.0000771 15.1670000 2
23383 23384 23386 23387 1 180.0000771 15.1670000 2
23383 23384 23386 23388 1 180.0000771 15.1670000 2
23385 23384 23386 23387 1 180.0000771 15.1670000 2
23385 23384 23386 23388 1 180.0000771 15.1670000 2
23384 23386 23388 23389 1 180.0000771 15.1670000 2
23384 23386 23388 23390 1 180.0000771 15.1670000 2
23387 23386 23388 23389 1 180.0000771 15.1670000 2
23387 23386 23388 23390 1 180.0000771 15.1670000 2
23384 23388 23386 23387 4 180.0000771 4.6024000 2
23386 23388 23390 23391 1 180.0000771 15.1670000 2
23386 23388 23390 23392 1 180.0000771 15.1670000 2
23389 23388 23390 23391 1 180.0000771 15.1670000 2
23389 23388 23390 23392 1 180.0000771 15.1670000 2
23386 23390 23388 23389 4 180.0000771 4.6024000 2
23383 23390 23392 23393 4 180.0000771 4.6024000 2
23388 23390 23392 23393 1 180.0000771 15.1670000 2
23391 23390 23392 23393 1 180.0000771 15.1670000 2
23383 23392 23390 23388 1 180.0000771 15.1670000 2
23383 23392 23390 23391 1 180.0000771 15.1670000 2
23388 23392 23390 23391 4 180.0000771 4.6024000 2
23394 23395 23396 23397 1 180.0000771 15.1670000 2
23394 23395 23396 23398 1 180.0000771 15.1670000 2
23397 23395 23396 23398 4 180.0000771 4.6024000 2
23394 23395 23404 23396 4 180.0000771 4.6024000 2
23394 23395 23404 23402 1 180.0000771 15.1670000 2
23394 23395 23404 23405 1 180.0000771 15.1670000 2
23396 23395 23404 23402 1 180.0000771 15.1670000 2
23396 23395 23404 23405 1 180.0000771 15.1670000 2
23397 23396 23395 23404 1 180.0000771 15.1670000 2
23398 23396 23395 23404 1 180.0000771 15.1670000 2
23395 23396 23398 23399 1 180.0000771 15.1670000 2
23395 23396 23398 23400 1 180.0000771 15.1670000 2
23397 23396 23398 23399 1 180.0000771 15.1670000 2
23397 23396 23398 23400 1 180.0000771 15.1670000 2
23396 23398 23400 23401 1 180.0000771 15.1670000 2
23396 23398 23400 23402 1 180.0000771 15.1670000 2
23399 23398 23400 23401 1 180.0000771 15.1670000 2
23399 23398 23400 23402 1 180.0000771 15.1670000 2
23396 23400 23398 23399 4 180.0000771 4.6024000 2
23398 23400 23402 23403 1 180.0000771 15.1670000 2
23398 23400 23402 23404 1 180.0000771 15.1670000 2
23401 23400 23402 23403 1 180.0000771 15.1670000 2
23401 23400 23402 23404 1 180.0000771 15.1670000 2
23398 23402 23400 23401 4 180.0000771 4.6024000 2
23395 23402 23404 23405 4 180.0000771 4.6024000 2
23400 23402 23404 23405 1 180.0000771 15.1670000 2
23403 23402 23404 23405 1 180.0000771 15.1670000 2
23395 23404 23402 23400 1 180.0000771 15.1670000 2
23395 23404 23402 23403 1 180.0000771 15.1670000 2
23400 23404 23402 23403 4 180.0000771 4.6024000 2
23406 23407 23408 23409 1 180.0000771 15.1670000 2
23406 23407 23408 23410 1 180.0000771 15.1670000 2
23409 23407 23408 23410 4 180.0000771 4.6024000 2
23406 23407 23416 23408 4 180.0000771 4.6024000 2
23406 23407 23416 23414 1 180.0000771 15.1670000 2
23406 23407 23416 23417 1 180.0000771 15.1670000 2
23408 23407 23416 23414 1 180.0000771 15.1670000 2
23408 23407 23416 23417 1 180.0000771 15.1670000 2
23409 23408 23407 23416 1 180.0000771 15.1670000 2
23410 23408 23407 23416 1 180.0000771 15.1670000 2
23407 23408 23410 23411 1 180.0000771 15.1670000 2
23407 23408 23410 23412 1 180.0000771 15.1670000 2
23409 23408 23410 23411 1 180.0000771 15.1670000 2
23409 23408 23410 23412 1 180.0000771 15.1670000 2
23408 23410 23412 23413 1 180.0000771 15.1670000 2
23408 23410 23412 23414 1 180.0000771 15.1670000 2
23411 23410 23412 23413 1 180.0000771 15.1670000 2
23411 23410 23412 23414 1 180.0000771 15.1670000 2
23408 23412 23410 23411 4 180.0000771 4.6024000 2
23410 23412 23414 23415 1 180.0000771 15.1670000 2
23410 23412 23414 23416 1 180.0000771 15.1670000 2
23413 23412 23414 23415 1 180.0000771 15.1670000 2
23413 23412 23414 23416 1 180.0000771 15.1670000 2
23410 23414 23412 23413 4 180.0000771 4.6024000 2
23407 23414 23416 23417 4 180.0000771 4.6024000 2
23412 23414 23416 23417 1 180.0000771 15.1670000 2
23415 23414 23416 23417 1 180.0000771 15.1670000 2
23407 23416 23414 23412 1 180.0000771 15.1670000 2
23407 23416 23414 23415 1 180.0000771 15.1670000 2
23412 23416 23414 23415 4 180.0000771 4.6024000 2
23418 23419 23420 23421 1 180.0000771 15.1670000 2
23418 23419 23420 23422 1 180.0000771 15.1670000 2
23421 23419 23420 23422 4 180.0000771 4.6024000 2
23418 23419 23428 23420 4 180.0000771 4.6024000 2
23418 23419 23428 23426 1 180.0000771 15.1670000 2
23418 23419 23428 23429 1 180.0000771 15.1670000 2
23420 23419 23428 23426 1 180.0000771 15.1670000 2
23420 23419 23428 23429 1 180.0000771 15.1670000 2
23421 23420 23419 23428 1 180.0000771 15.1670000 2
23422 23420 23419 23428 1 180.0000771 15.1670000 2
23419 23420 23422 23423 1 180.0000771 15.1670000 2
23419 23420 23422 23424 1 180.0000771 15.1670000 2
23421 23420 23422 23423 1 180.0000771 15.1670000 2
23421 23420 23422 23424 1 180.0000771 15.1670000 2
23420 23422 23424 23425 1 180.0000771 15.1670000 2
23420 23422 23424 23426 1 180.0000771 15.1670000 2
23423 23422 23424 23425 1 180.0000771 15.1670000 2
23423 23422 23424 23426 1 180.0000771 15.1670000 2
23420 23424 23422 23423 4 180.0000771 4.6024000 2
23422 23424 23426 23427 1 180.0000771 15.1670000 2
23422 23424 23426 23428 1 180.0000771 15.1670000 2
23425 23424 23426 23427 1 180.0000771 15.1670000 2
23425 23424 23426 23428 1 180.0000771 15.1670000 2
23422 23426 23424 23425 4 180.0000771 4.6024000 2
23419 23426 23428 23429 4 180.0000771 4.6024000 2
23424 23426 23428 23429 1 180.0000771 15.1670000 2
23427 23426 23428 23429 1 180.0000771 15.1670000 2
23419 23428 23426 23424 1 180.0000771 15.1670000 2
23419 23428 23426 23427 1 180.0000771 15.1670000 2
23424 23428 23426 23427 4 180.0000771 4.6024000 2
23430 23431 23432 23433 1 180.0000771 15.1670000 2
23430 23431 23432 23434 1 180.0000771 15.1670000 2
23433 23431 23432 23434 4 180.0000771 4.6024000 2
23430 23431 23440 23432 4 180.0000771 4.6024000 2
23430 23431 23440 23438 1 180.0000771 15.1670000 2
23430 23431 23440 23441 1 180.0000771 15.1670000 2
23432 23431 23440 23438 1 180.0000771 15.1670000 2
23432 23431 23440 23441 1 180.0000771 15.1670000 2
23433 23432 23431 23440 1 180.0000771 15.1670000 2
23434 23432 23431 23440 1 180.0000771 15.1670000 2
23431 23432 23434 23435 1 180.0000771 15.1670000 2
23431 23432 23434 23436 1 180.0000771 15.1670000 2
23433 23432 23434 23435 1 180.0000771 15.1670000 2
23433 23432 23434 23436 1 180.0000771 15.1670000 2
23432 23434 23436 23437 1 180.0000771 15.1670000 2
23432 23434 23436 23438 1 180.0000771 15.1670000 2
23435 23434 23436 23437 1 180.0000771 15.1670000 2
23435 23434 23436 23438 1 180.0000771 15.1670000 2
23432 23436 23434 23435 4 180.0000771 4.6024000 2
23434 23436 23438 23439 1 180.0000771 15.1670000 2
23434 23436 23438 23440 1 180.0000771 15.1670000 2
23437 23436 23438 23439 1 180.0000771 15.1670000 2
23437 23436 23438 23440 1 180.0000771 15.1670000 2
23434 23438 23436 23437 4 180.0000771 4.6024000 2
23431 23438 23440 23441 4 180.0000771 4.6024000 2
23436 23438 23440 23441 1 180.0000771 15.1670000 2
23439 23438 23440 23441 1 180.0000771 15.1670000 2
23431 23440 23438 23436 1 180.0000771 15.1670000 2
23431 23440 23438 23439 1 180.0000771 15.1670000 2
23436 23440 23438 23439 4 180.0000771 4.6024000 2
23442 23443 23444 23445 1 180.0000771 15.1670000 2
23442 23443 23444 23446 1 180.0000771 15.1670000 2
23445 23443 23444 23446 4 180.0000771 4.6024000 2
23442 23443 23452 23444 4 180.0000771 4.6024000 2
23442 23443 23452 23450 1 180.0000771 15.1670000 2
23442 23443 23452 23453 1 180.0000771 15.1670000 2
23444 23443 23452 23450 1 180.0000771 15.1670000 2
23444 23443 23452 23453 1 180.0000771 15.1670000 2
23445 23444 23443 23452 1 180.0000771 15.1670000 2
23446 23444 23443 23452 1 180.0000771 15.1670000 2
23443 23444 23446 23447 1 180.0000771 15.1670000 2
23443 23444 23446 23448 1 180.0000771 15.1670000 2
23445 23444 23446 23447 1 180.0000771 15.1670000 2
23445 23444 23446 23448 1 180.0000771 15.1670000 2
23444 23446 23448 23449 1 180.0000771 15.1670000 2
23444 23446 23448 23450 1 180.0000771 15.1670000 2
23447 23446 23448 23449 1 180.0000771 15.1670000 2
23447 23446 23448 23450 1 180.0000771 15.1670000 2
23444 23448 23446 23447 4 180.0000771 4.6024000 2
23446 23448 23450 23451 1 180.0000771 15.1670000 2
23446 23448 23450 23452 1 180.0000771 15.1670000 2
23449 23448 23450 23451 1 180.0000771 15.1670000 2
23449 23448 23450 23452 1 180.0000771 15.1670000 2
23446 23450 23448 23449 4 180.0000771 4.6024000 2
23443 23450 23452 23453 4 180.0000771 4.6024000 2
23448 23450 23452 23453 1 180.0000771 15.1670000 2
23451 23450 23452 23453 1 180.0000771 15.1670000 2
23443 23452 23450 23448 1 180.0000771 15.1670000 2
23443 23452 23450 23451 1 180.0000771 15.1670000 2
23448 23452 23450 23451 4 180.0000771 4.6024000 2
23454 23455 23456 23457 1 180.0000771 15.1670000 2
23454 23455 23456 23458 1 180.0000771 15.1670000 2
23457 23455 23456 23458 4 180.0000771 4.6024000 2
23454 23455 23464 23456 4 180.0000771 4.6024000 2
23454 23455 23464 23462 1 180.0000771 15.1670000 2
23454 23455 23464 23465 1 180.0000771 15.1670000 2
23456 23455 23464 23462 1 180.0000771 15.1670000 2
23456 23455 23464 23465 1 180.0000771 15.1670000 2
23457 23456 23455 23464 1 180.0000771 15.1670000 2
23458 23456 23455 23464 1 180.0000771 15.1670000 2
23455 23456 23458 23459 1 180.0000771 15.1670000 2
23455 23456 23458 23460 1 180.0000771 15.1670000 2
23457 23456 23458 23459 1 180.0000771 15.1670000 2
23457 23456 23458 23460 1 180.0000771 15.1670000 2
23456 23458 23460 23461 1 180.0000771 15.1670000 2
23456 23458 23460 23462 1 180.0000771 15.1670000 2
23459 23458 23460 23461 1 180.0000771 15.1670000 2
23459 23458 23460 23462 1 180.0000771 15.1670000 2
23456 23460 23458 23459 4 180.0000771 4.6024000 2
23458 23460 23462 23463 1 180.0000771 15.1670000 2
23458 23460 23462 23464 1 180.0000771 15.1670000 2
23461 23460 23462 23463 1 180.0000771 15.1670000 2
23461 23460 23462 23464 1 180.0000771 15.1670000 2
23458 23462 23460 23461 4 180.0000771 4.6024000 2
23455 23462 23464 23465 4 180.0000771 4.6024000 2
23460 23462 23464 23465 1 180.0000771 15.1670000 2
23463 23462 23464 23465 1 180.0000771 15.1670000 2
23455 23464 23462 23460 1 180.0000771 15.1670000 2
23455 23464 23462 23463 1 180.0000771 15.1670000 2
23460 23464 23462 23463 4 180.0000771 4.6024000 2
23466 23467 23468 23469 1 180.0000771 15.1670000 2
23466 23467 23468 23470 1 180.0000771 15.1670000 2
23469 23467 23468 23470 4 180.0000771 4.6024000 2
23466 23467 23476 23468 4 180.0000771 4.6024000 2
23466 23467 23476 23474 1 180.0000771 15.1670000 2
23466 23467 23476 23477 1 180.0000771 15.1670000 2
23468 23467 23476 23474 1 180.0000771 15.1670000 2
23468 23467 23476 23477 1 180.0000771 15.1670000 2
23469 23468 23467 23476 1 180.0000771 15.1670000 2
23470 23468 23467 23476 1 180.0000771 15.1670000 2
23467 23468 23470 23471 1 180.0000771 15.1670000 2
23467 23468 23470 23472 1 180.0000771 15.1670000 2
23469 23468 23470 23471 1 180.0000771 15.1670000 2
23469 23468 23470 23472 1 180.0000771 15.1670000 2
23468 23470 23472 23473 1 180.0000771 15.1670000 2
23468 23470 23472 23474 1 180.0000771 15.1670000 2
23471 23470 23472 23473 1 180.0000771 15.1670000 2
23471 23470 23472 23474 1 180.0000771 15.1670000 2
23468 23472 23470 23471 4 180.0000771 4.6024000 2
23470 23472 23474 23475 1 180.0000771 15.1670000 2
23470 23472 23474 23476 1 180.0000771 15.1670000 2
23473 23472 23474 23475 1 180.0000771 15.1670000 2
23473 23472 23474 23476 1 180.0000771 15.1670000 2
23470 23474 23472 23473 4 180.0000771 4.6024000 2
23467 23474 23476 23477 4 180.0000771 4.6024000 2
23472 23474 23476 23477 1 180.0000771 15.1670000 2
23475 23474 23476 23477 1 180.0000771 15.1670000 2
23467 23476 23474 23472 1 180.0000771 15.1670000 2
23467 23476 23474 23475 1 180.0000771 15.1670000 2
23472 23476 23474 23475 4 180.0000771 4.6024000 2
23478 23479 23480 23481 1 180.0000771 15.1670000 2
23478 23479 23480 23482 1 180.0000771 15.1670000 2
23481 23479 23480 23482 4 180.0000771 4.6024000 2
23478 23479 23488 23480 4 180.0000771 4.6024000 2
23478 23479 23488 23486 1 180.0000771 15.1670000 2
23478 23479 23488 23489 1 180.0000771 15.1670000 2
23480 23479 23488 23486 1 180.0000771 15.1670000 2
23480 23479 23488 23489 1 180.0000771 15.1670000 2
23481 23480 23479 23488 1 180.0000771 15.1670000 2
23482 23480 23479 23488 1 180.0000771 15.1670000 2
23479 23480 23482 23483 1 180.0000771 15.1670000 2
23479 23480 23482 23484 1 180.0000771 15.1670000 2
23481 23480 23482 23483 1 180.0000771 15.1670000 2
23481 23480 23482 23484 1 180.0000771 15.1670000 2
23480 23482 23484 23485 1 180.0000771 15.1670000 2
23480 23482 23484 23486 1 180.0000771 15.1670000 2
23483 23482 23484 23485 1 180.0000771 15.1670000 2
23483 23482 23484 23486 1 180.0000771 15.1670000 2
23480 23484 23482 23483 4 180.0000771 4.6024000 2
23482 23484 23486 23487 1 180.0000771 15.1670000 2
23482 23484 23486 23488 1 180.0000771 15.1670000 2
23485 23484 23486 23487 1 180.0000771 15.1670000 2
23485 23484 23486 23488 1 180.0000771 15.1670000 2
23482 23486 23484 23485 4 180.0000771 4.6024000 2
23479 23486 23488 23489 4 180.0000771 4.6024000 2
23484 23486 23488 23489 1 180.0000771 15.1670000 2
23487 23486 23488 23489 1 180.0000771 15.1670000 2
23479 23488 23486 23484 1 180.0000771 15.1670000 2
23479 23488 23486 23487 1 180.0000771 15.1670000 2
23484 23488 23486 23487 4 180.0000771 4.6024000 2
23490 23491 23492 23493 1 180.0000771 15.1670000 2
23490 23491 23492 23494 1 180.0000771 15.1670000 2
23493 23491 23492 23494 4 180.0000771 4.6024000 2
23490 23491 23500 23492 4 180.0000771 4.6024000 2
23490 23491 23500 23498 1 180.0000771 15.1670000 2
23490 23491 23500 23501 1 180.0000771 15.1670000 2
23492 23491 23500 23498 1 180.0000771 15.1670000 2
23492 23491 23500 23501 1 180.0000771 15.1670000 2
23493 23492 23491 23500 1 180.0000771 15.1670000 2
23494 23492 23491 23500 1 180.0000771 15.1670000 2
23491 23492 23494 23495 1 180.0000771 15.1670000 2
23491 23492 23494 23496 1 180.0000771 15.1670000 2
23493 23492 23494 23495 1 180.0000771 15.1670000 2
23493 23492 23494 23496 1 180.0000771 15.1670000 2
23492 23494 23496 23497 1 180.0000771 15.1670000 2
23492 23494 23496 23498 1 180.0000771 15.1670000 2
23495 23494 23496 23497 1 180.0000771 15.1670000 2
23495 23494 23496 23498 1 180.0000771 15.1670000 2
23492 23496 23494 23495 4 180.0000771 4.6024000 2
23494 23496 23498 23499 1 180.0000771 15.1670000 2
23494 23496 23498 23500 1 180.0000771 15.1670000 2
23497 23496 23498 23499 1 180.0000771 15.1670000 2
23497 23496 23498 23500 1 180.0000771 15.1670000 2
23494 23498 23496 23497 4 180.0000771 4.6024000 2
23491 23498 23500 23501 4 180.0000771 4.6024000 2
23496 23498 23500 23501 1 180.0000771 15.1670000 2
23499 23498 23500 23501 1 180.0000771 15.1670000 2
23491 23500 23498 23496 1 180.0000771 15.1670000 2
23491 23500 23498 23499 1 180.0000771 15.1670000 2
23496 23500 23498 23499 4 180.0000771 4.6024000 2
23502 23503 23504 23505 1 180.0000771 15.1670000 2
23502 23503 23504 23506 1 180.0000771 15.1670000 2
23505 23503 23504 23506 4 180.0000771 4.6024000 2
23502 23503 23512 23504 4 180.0000771 4.6024000 2
23502 23503 23512 23510 1 180.0000771 15.1670000 2
23502 23503 23512 23513 1 180.0000771 15.1670000 2
23504 23503 23512 23510 1 180.0000771 15.1670000 2
23504 23503 23512 23513 1 180.0000771 15.1670000 2
23505 23504 23503 23512 1 180.0000771 15.1670000 2
23506 23504 23503 23512 1 180.0000771 15.1670000 2
23503 23504 23506 23507 1 180.0000771 15.1670000 2
23503 23504 23506 23508 1 180.0000771 15.1670000 2
23505 23504 23506 23507 1 180.0000771 15.1670000 2
23505 23504 23506 23508 1 180.0000771 15.1670000 2
23504 23506 23508 23509 1 180.0000771 15.1670000 2
23504 23506 23508 23510 1 180.0000771 15.1670000 2
23507 23506 23508 23509 1 180.0000771 15.1670000 2
23507 23506 23508 23510 1 180.0000771 15.1670000 2
23504 23508 23506 23507 4 180.0000771 4.6024000 2
23506 23508 23510 23511 1 180.0000771 15.1670000 2
23506 23508 23510 23512 1 180.0000771 15.1670000 2
23509 23508 23510 23511 1 180.0000771 15.1670000 2
23509 23508 23510 23512 1 180.0000771 15.1670000 2
23506 23510 23508 23509 4 180.0000771 4.6024000 2
23503 23510 23512 23513 4 180.0000771 4.6024000 2
23508 23510 23512 23513 1 180.0000771 15.1670000 2
23511 23510 23512 23513 1 180.0000771 15.1670000 2
23503 23512 23510 23508 1 180.0000771 15.1670000 2
23503 23512 23510 23511 1 180.0000771 15.1670000 2
23508 23512 23510 23511 4 180.0000771 4.6024000 2
23514 23515 23516 23517 1 180.0000771 15.1670000 2
23514 23515 23516 23518 1 180.0000771 15.1670000 2
23517 23515 23516 23518 4 180.0000771 4.6024000 2
23514 23515 23524 23516 4 180.0000771 4.6024000 2
23514 23515 23524 23522 1 180.0000771 15.1670000 2
23514 23515 23524 23525 1 180.0000771 15.1670000 2
23516 23515 23524 23522 1 180.0000771 15.1670000 2
23516 23515 23524 23525 1 180.0000771 15.1670000 2
23517 23516 23515 23524 1 180.0000771 15.1670000 2
23518 23516 23515 23524 1 180.0000771 15.1670000 2
23515 23516 23518 23519 1 180.0000771 15.1670000 2
23515 23516 23518 23520 1 180.0000771 15.1670000 2
23517 23516 23518 23519 1 180.0000771 15.1670000 2
23517 23516 23518 23520 1 180.0000771 15.1670000 2
23516 23518 23520 23521 1 180.0000771 15.1670000 2
23516 23518 23520 23522 1 180.0000771 15.1670000 2
23519 23518 23520 23521 1 180.0000771 15.1670000 2
23519 23518 23520 23522 1 180.0000771 15.1670000 2
23516 23520 23518 23519 4 180.0000771 4.6024000 2
23518 23520 23522 23523 1 180.0000771 15.1670000 2
23518 23520 23522 23524 1 180.0000771 15.1670000 2
23521 23520 23522 23523 1 180.0000771 15.1670000 2
23521 23520 23522 23524 1 180.0000771 15.1670000 2
23518 23522 23520 23521 4 180.0000771 4.6024000 2
23515 23522 23524 23525 4 180.0000771 4.6024000 2
23520 23522 23524 23525 1 180.0000771 15.1670000 2
23523 23522 23524 23525 1 180.0000771 15.1670000 2
23515 23524 23522 23520 1 180.0000771 15.1670000 2
23515 23524 23522 23523 1 180.0000771 15.1670000 2
23520 23524 23522 23523 4 180.0000771 4.6024000 2
23526 23527 23528 23529 1 180.0000771 15.1670000 2
23526 23527 23528 23530 1 180.0000771 15.1670000 2
23529 23527 23528 23530 4 180.0000771 4.6024000 2
23526 23527 23536 23528 4 180.0000771 4.6024000 2
23526 23527 23536 23534 1 180.0000771 15.1670000 2
23526 23527 23536 23537 1 180.0000771 15.1670000 2
23528 23527 23536 23534 1 180.0000771 15.1670000 2
23528 23527 23536 23537 1 180.0000771 15.1670000 2
23529 23528 23527 23536 1 180.0000771 15.1670000 2
23530 23528 23527 23536 1 180.0000771 15.1670000 2
23527 23528 23530 23531 1 180.0000771 15.1670000 2
23527 23528 23530 23532 1 180.0000771 15.1670000 2
23529 23528 23530 23531 1 180.0000771 15.1670000 2
23529 23528 23530 23532 1 180.0000771 15.1670000 2
23528 23530 23532 23533 1 180.0000771 15.1670000 2
23528 23530 23532 23534 1 180.0000771 15.1670000 2
23531 23530 23532 23533 1 180.0000771 15.1670000 2
23531 23530 23532 23534 1 180.0000771 15.1670000 2
23528 23532 23530 23531 4 180.0000771 4.6024000 2
23530 23532 23534 23535 1 180.0000771 15.1670000 2
23530 23532 23534 23536 1 180.0000771 15.1670000 2
23533 23532 23534 23535 1 180.0000771 15.1670000 2
23533 23532 23534 23536 1 180.0000771 15.1670000 2
23530 23534 23532 23533 4 180.0000771 4.6024000 2
23527 23534 23536 23537 4 180.0000771 4.6024000 2
23532 23534 23536 23537 1 180.0000771 15.1670000 2
23535 23534 23536 23537 1 180.0000771 15.1670000 2
23527 23536 23534 23532 1 180.0000771 15.1670000 2
23527 23536 23534 23535 1 180.0000771 15.1670000 2
23532 23536 23534 23535 4 180.0000771 4.6024000 2
23538 23539 23540 23541 1 180.0000771 15.1670000 2
23538 23539 23540 23542 1 180.0000771 15.1670000 2
23541 23539 23540 23542 4 180.0000771 4.6024000 2
23538 23539 23548 23540 4 180.0000771 4.6024000 2
23538 23539 23548 23546 1 180.0000771 15.1670000 2
23538 23539 23548 23549 1 180.0000771 15.1670000 2
23540 23539 23548 23546 1 180.0000771 15.1670000 2
23540 23539 23548 23549 1 180.0000771 15.1670000 2
23541 23540 23539 23548 1 180.0000771 15.1670000 2
23542 23540 23539 23548 1 180.0000771 15.1670000 2
23539 23540 23542 23543 1 180.0000771 15.1670000 2
23539 23540 23542 23544 1 180.0000771 15.1670000 2
23541 23540 23542 23543 1 180.0000771 15.1670000 2
23541 23540 23542 23544 1 180.0000771 15.1670000 2
23540 23542 23544 23545 1 180.0000771 15.1670000 2
23540 23542 23544 23546 1 180.0000771 15.1670000 2
23543 23542 23544 23545 1 180.0000771 15.1670000 2
23543 23542 23544 23546 1 180.0000771 15.1670000 2
23540 23544 23542 23543 4 180.0000771 4.6024000 2
23542 23544 23546 23547 1 180.0000771 15.1670000 2
23542 23544 23546 23548 1 180.0000771 15.1670000 2
23545 23544 23546 23547 1 180.0000771 15.1670000 2
23545 23544 23546 23548 1 180.0000771 15.1670000 2
23542 23546 23544 23545 4 180.0000771 4.6024000 2
23539 23546 23548 23549 4 180.0000771 4.6024000 2
23544 23546 23548 23549 1 180.0000771 15.1670000 2
23547 23546 23548 23549 1 180.0000771 15.1670000 2
23539 23548 23546 23544 1 180.0000771 15.1670000 2
23539 23548 23546 23547 1 180.0000771 15.1670000 2
23544 23548 23546 23547 4 180.0000771 4.6024000 2
23550 23551 23552 23553 1 180.0000771 15.1670000 2
23550 23551 23552 23554 1 180.0000771 15.1670000 2
23553 23551 23552 23554 4 180.0000771 4.6024000 2
23550 23551 23560 23552 4 180.0000771 4.6024000 2
23550 23551 23560 23558 1 180.0000771 15.1670000 2
23550 23551 23560 23561 1 180.0000771 15.1670000 2
23552 23551 23560 23558 1 180.0000771 15.1670000 2
23552 23551 23560 23561 1 180.0000771 15.1670000 2
23553 23552 23551 23560 1 180.0000771 15.1670000 2
23554 23552 23551 23560 1 180.0000771 15.1670000 2
23551 23552 23554 23555 1 180.0000771 15.1670000 2
23551 23552 23554 23556 1 180.0000771 15.1670000 2
23553 23552 23554 23555 1 180.0000771 15.1670000 2
23553 23552 23554 23556 1 180.0000771 15.1670000 2
23552 23554 23556 23557 1 180.0000771 15.1670000 2
23552 23554 23556 23558 1 180.0000771 15.1670000 2
23555 23554 23556 23557 1 180.0000771 15.1670000 2
23555 23554 23556 23558 1 180.0000771 15.1670000 2
23552 23556 23554 23555 4 180.0000771 4.6024000 2
23554 23556 23558 23559 1 180.0000771 15.1670000 2
23554 23556 23558 23560 1 180.0000771 15.1670000 2
23557 23556 23558 23559 1 180.0000771 15.1670000 2
23557 23556 23558 23560 1 180.0000771 15.1670000 2
23554 23558 23556 23557 4 180.0000771 4.6024000 2
23551 23558 23560 23561 4 180.0000771 4.6024000 2
23556 23558 23560 23561 1 180.0000771 15.1670000 2
23559 23558 23560 23561 1 180.0000771 15.1670000 2
23551 23560 23558 23556 1 180.0000771 15.1670000 2
23551 23560 23558 23559 1 180.0000771 15.1670000 2
23556 23560 23558 23559 4 180.0000771 4.6024000 2
23562 23563 23564 23565 1 180.0000771 15.1670000 2
23562 23563 23564 23566 1 180.0000771 15.1670000 2
23565 23563 23564 23566 4 180.0000771 4.6024000 2
23562 23563 23572 23564 4 180.0000771 4.6024000 2
23562 23563 23572 23570 1 180.0000771 15.1670000 2
23562 23563 23572 23573 1 180.0000771 15.1670000 2
23564 23563 23572 23570 1 180.0000771 15.1670000 2
23564 23563 23572 23573 1 180.0000771 15.1670000 2
23565 23564 23563 23572 1 180.0000771 15.1670000 2
23566 23564 23563 23572 1 180.0000771 15.1670000 2
23563 23564 23566 23567 1 180.0000771 15.1670000 2
23563 23564 23566 23568 1 180.0000771 15.1670000 2
23565 23564 23566 23567 1 180.0000771 15.1670000 2
23565 23564 23566 23568 1 180.0000771 15.1670000 2
23564 23566 23568 23569 1 180.0000771 15.1670000 2
23564 23566 23568 23570 1 180.0000771 15.1670000 2
23567 23566 23568 23569 1 180.0000771 15.1670000 2
23567 23566 23568 23570 1 180.0000771 15.1670000 2
23564 23568 23566 23567 4 180.0000771 4.6024000 2
23566 23568 23570 23571 1 180.0000771 15.1670000 2
23566 23568 23570 23572 1 180.0000771 15.1670000 2
23569 23568 23570 23571 1 180.0000771 15.1670000 2
23569 23568 23570 23572 1 180.0000771 15.1670000 2
23566 23570 23568 23569 4 180.0000771 4.6024000 2
23563 23570 23572 23573 4 180.0000771 4.6024000 2
23568 23570 23572 23573 1 180.0000771 15.1670000 2
23571 23570 23572 23573 1 180.0000771 15.1670000 2
23563 23572 23570 23568 1 180.0000771 15.1670000 2
23563 23572 23570 23571 1 180.0000771 15.1670000 2
23568 23572 23570 23571 4 180.0000771 4.6024000 2
23574 23575 23576 23577 1 180.0000771 15.1670000 2
23574 23575 23576 23578 1 180.0000771 15.1670000 2
23577 23575 23576 23578 4 180.0000771 4.6024000 2
23574 23575 23584 23576 4 180.0000771 4.6024000 2
23574 23575 23584 23582 1 180.0000771 15.1670000 2
23574 23575 23584 23585 1 180.0000771 15.1670000 2
23576 23575 23584 23582 1 180.0000771 15.1670000 2
23576 23575 23584 23585 1 180.0000771 15.1670000 2
23577 23576 23575 23584 1 180.0000771 15.1670000 2
23578 23576 23575 23584 1 180.0000771 15.1670000 2
23575 23576 23578 23579 1 180.0000771 15.1670000 2
23575 23576 23578 23580 1 180.0000771 15.1670000 2
23577 23576 23578 23579 1 180.0000771 15.1670000 2
23577 23576 23578 23580 1 180.0000771 15.1670000 2
23576 23578 23580 23581 1 180.0000771 15.1670000 2
23576 23578 23580 23582 1 180.0000771 15.1670000 2
23579 23578 23580 23581 1 180.0000771 15.1670000 2
23579 23578 23580 23582 1 180.0000771 15.1670000 2
23576 23580 23578 23579 4 180.0000771 4.6024000 2
23578 23580 23582 23583 1 180.0000771 15.1670000 2
23578 23580 23582 23584 1 180.0000771 15.1670000 2
23581 23580 23582 23583 1 180.0000771 15.1670000 2
23581 23580 23582 23584 1 180.0000771 15.1670000 2
23578 23582 23580 23581 4 180.0000771 4.6024000 2
23575 23582 23584 23585 4 180.0000771 4.6024000 2
23580 23582 23584 23585 1 180.0000771 15.1670000 2
23583 23582 23584 23585 1 180.0000771 15.1670000 2
23575 23584 23582 23580 1 180.0000771 15.1670000 2
23575 23584 23582 23583 1 180.0000771 15.1670000 2
23580 23584 23582 23583 4 180.0000771 4.6024000 2
23586 23587 23588 23589 1 180.0000771 15.1670000 2
23586 23587 23588 23590 1 180.0000771 15.1670000 2
23589 23587 23588 23590 4 180.0000771 4.6024000 2
23586 23587 23596 23588 4 180.0000771 4.6024000 2
23586 23587 23596 23594 1 180.0000771 15.1670000 2
23586 23587 23596 23597 1 180.0000771 15.1670000 2
23588 23587 23596 23594 1 180.0000771 15.1670000 2
23588 23587 23596 23597 1 180.0000771 15.1670000 2
23589 23588 23587 23596 1 180.0000771 15.1670000 2
23590 23588 23587 23596 1 180.0000771 15.1670000 2
23587 23588 23590 23591 1 180.0000771 15.1670000 2
23587 23588 23590 23592 1 180.0000771 15.1670000 2
23589 23588 23590 23591 1 180.0000771 15.1670000 2
23589 23588 23590 23592 1 180.0000771 15.1670000 2
23588 23590 23592 23593 1 180.0000771 15.1670000 2
23588 23590 23592 23594 1 180.0000771 15.1670000 2
23591 23590 23592 23593 1 180.0000771 15.1670000 2
23591 23590 23592 23594 1 180.0000771 15.1670000 2
23588 23592 23590 23591 4 180.0000771 4.6024000 2
23590 23592 23594 23595 1 180.0000771 15.1670000 2
23590 23592 23594 23596 1 180.0000771 15.1670000 2
23593 23592 23594 23595 1 180.0000771 15.1670000 2
23593 23592 23594 23596 1 180.0000771 15.1670000 2
23590 23594 23592 23593 4 180.0000771 4.6024000 2
23587 23594 23596 23597 4 180.0000771 4.6024000 2
23592 23594 23596 23597 1 180.0000771 15.1670000 2
23595 23594 23596 23597 1 180.0000771 15.1670000 2
23587 23596 23594 23592 1 180.0000771 15.1670000 2
23587 23596 23594 23595 1 180.0000771 15.1670000 2
23592 23596 23594 23595 4 180.0000771 4.6024000 2
23598 23599 23600 23601 1 180.0000771 15.1670000 2
23598 23599 23600 23602 1 180.0000771 15.1670000 2
23601 23599 23600 23602 4 180.0000771 4.6024000 2
23598 23599 23608 23600 4 180.0000771 4.6024000 2
23598 23599 23608 23606 1 180.0000771 15.1670000 2
23598 23599 23608 23609 1 180.0000771 15.1670000 2
23600 23599 23608 23606 1 180.0000771 15.1670000 2
23600 23599 23608 23609 1 180.0000771 15.1670000 2
23601 23600 23599 23608 1 180.0000771 15.1670000 2
23602 23600 23599 23608 1 180.0000771 15.1670000 2
23599 23600 23602 23603 1 180.0000771 15.1670000 2
23599 23600 23602 23604 1 180.0000771 15.1670000 2
23601 23600 23602 23603 1 180.0000771 15.1670000 2
23601 23600 23602 23604 1 180.0000771 15.1670000 2
23600 23602 23604 23605 1 180.0000771 15.1670000 2
23600 23602 23604 23606 1 180.0000771 15.1670000 2
23603 23602 23604 23605 1 180.0000771 15.1670000 2
23603 23602 23604 23606 1 180.0000771 15.1670000 2
23600 23604 23602 23603 4 180.0000771 4.6024000 2
23602 23604 23606 23607 1 180.0000771 15.1670000 2
23602 23604 23606 23608 1 180.0000771 15.1670000 2
23605 23604 23606 23607 1 180.0000771 15.1670000 2
23605 23604 23606 23608 1 180.0000771 15.1670000 2
23602 23606 23604 23605 4 180.0000771 4.6024000 2
23599 23606 23608 23609 4 180.0000771 4.6024000 2
23604 23606 23608 23609 1 180.0000771 15.1670000 2
23607 23606 23608 23609 1 180.0000771 15.1670000 2
23599 23608 23606 23604 1 180.0000771 15.1670000 2
23599 23608 23606 23607 1 180.0000771 15.1670000 2
23604 23608 23606 23607 4 180.0000771 4.6024000 2
23610 23611 23612 23613 1 180.0000771 15.1670000 2
23610 23611 23612 23614 1 180.0000771 15.1670000 2
23613 23611 23612 23614 4 180.0000771 4.6024000 2
23610 23611 23620 23612 4 180.0000771 4.6024000 2
23610 23611 23620 23618 1 180.0000771 15.1670000 2
23610 23611 23620 23621 1 180.0000771 15.1670000 2
23612 23611 23620 23618 1 180.0000771 15.1670000 2
23612 23611 23620 23621 1 180.0000771 15.1670000 2
23613 23612 23611 23620 1 180.0000771 15.1670000 2
23614 23612 23611 23620 1 180.0000771 15.1670000 2
23611 23612 23614 23615 1 180.0000771 15.1670000 2
23611 23612 23614 23616 1 180.0000771 15.1670000 2
23613 23612 23614 23615 1 180.0000771 15.1670000 2
23613 23612 23614 23616 1 180.0000771 15.1670000 2
23612 23614 23616 23617 1 180.0000771 15.1670000 2
23612 23614 23616 23618 1 180.0000771 15.1670000 2
23615 23614 23616 23617 1 180.0000771 15.1670000 2
23615 23614 23616 23618 1 180.0000771 15.1670000 2
23612 23616 23614 23615 4 180.0000771 4.6024000 2
23614 23616 23618 23619 1 180.0000771 15.1670000 2
23614 23616 23618 23620 1 180.0000771 15.1670000 2
23617 23616 23618 23619 1 180.0000771 15.1670000 2
23617 23616 23618 23620 1 180.0000771 15.1670000 2
23614 23618 23616 23617 4 180.0000771 4.6024000 2
23611 23618 23620 23621 4 180.0000771 4.6024000 2
23616 23618 23620 23621 1 180.0000771 15.1670000 2
23619 23618 23620 23621 1 180.0000771 15.1670000 2
23611 23620 23618 23616 1 180.0000771 15.1670000 2
23611 23620 23618 23619 1 180.0000771 15.1670000 2
23616 23620 23618 23619 4 180.0000771 4.6024000 2
23622 23623 23624 23625 1 180.0000771 15.1670000 2
23622 23623 23624 23626 1 180.0000771 15.1670000 2
23625 23623 23624 23626 4 180.0000771 4.6024000 2
23622 23623 23632 23624 4 180.0000771 4.6024000 2
23622 23623 23632 23630 1 180.0000771 15.1670000 2
23622 23623 23632 23633 1 180.0000771 15.1670000 2
23624 23623 23632 23630 1 180.0000771 15.1670000 2
23624 23623 23632 23633 1 180.0000771 15.1670000 2
23625 23624 23623 23632 1 180.0000771 15.1670000 2
23626 23624 23623 23632 1 180.0000771 15.1670000 2
23623 23624 23626 23627 1 180.0000771 15.1670000 2
23623 23624 23626 23628 1 180.0000771 15.1670000 2
23625 23624 23626 23627 1 180.0000771 15.1670000 2
23625 23624 23626 23628 1 180.0000771 15.1670000 2
23624 23626 23628 23629 1 180.0000771 15.1670000 2
23624 23626 23628 23630 1 180.0000771 15.1670000 2
23627 23626 23628 23629 1 180.0000771 15.1670000 2
23627 23626 23628 23630 1 180.0000771 15.1670000 2
23624 23628 23626 23627 4 180.0000771 4.6024000 2
23626 23628 23630 23631 1 180.0000771 15.1670000 2
23626 23628 23630 23632 1 180.0000771 15.1670000 2
23629 23628 23630 23631 1 180.0000771 15.1670000 2
23629 23628 23630 23632 1 180.0000771 15.1670000 2
23626 23630 23628 23629 4 180.0000771 4.6024000 2
23623 23630 23632 23633 4 180.0000771 4.6024000 2
23628 23630 23632 23633 1 180.0000771 15.1670000 2
23631 23630 23632 23633 1 180.0000771 15.1670000 2
23623 23632 23630 23628 1 180.0000771 15.1670000 2
23623 23632 23630 23631 1 180.0000771 15.1670000 2
23628 23632 23630 23631 4 180.0000771 4.6024000 2
23634 23635 23636 23637 1 180.0000771 15.1670000 2
23634 23635 23636 23638 1 180.0000771 15.1670000 2
23637 23635 23636 23638 4 180.0000771 4.6024000 2
23634 23635 23644 23636 4 180.0000771 4.6024000 2
23634 23635 23644 23642 1 180.0000771 15.1670000 2
23634 23635 23644 23645 1 180.0000771 15.1670000 2
23636 23635 23644 23642 1 180.0000771 15.1670000 2
23636 23635 23644 23645 1 180.0000771 15.1670000 2
23637 23636 23635 23644 1 180.0000771 15.1670000 2
23638 23636 23635 23644 1 180.0000771 15.1670000 2
23635 23636 23638 23639 1 180.0000771 15.1670000 2
23635 23636 23638 23640 1 180.0000771 15.1670000 2
23637 23636 23638 23639 1 180.0000771 15.1670000 2
23637 23636 23638 23640 1 180.0000771 15.1670000 2
23636 23638 23640 23641 1 180.0000771 15.1670000 2
23636 23638 23640 23642 1 180.0000771 15.1670000 2
23639 23638 23640 23641 1 180.0000771 15.1670000 2
23639 23638 23640 23642 1 180.0000771 15.1670000 2
23636 23640 23638 23639 4 180.0000771 4.6024000 2
23638 23640 23642 23643 1 180.0000771 15.1670000 2
23638 23640 23642 23644 1 180.0000771 15.1670000 2
23641 23640 23642 23643 1 180.0000771 15.1670000 2
23641 23640 23642 23644 1 180.0000771 15.1670000 2
23638 23642 23640 23641 4 180.0000771 4.6024000 2
23635 23642 23644 23645 4 180.0000771 4.6024000 2
23640 23642 23644 23645 1 180.0000771 15.1670000 2
23643 23642 23644 23645 1 180.0000771 15.1670000 2
23635 23644 23642 23640 1 180.0000771 15.1670000 2
23635 23644 23642 23643 1 180.0000771 15.1670000 2
23640 23644 23642 23643 4 180.0000771 4.6024000 2
23646 23647 23648 23649 1 180.0000771 15.1670000 2
23646 23647 23648 23650 1 180.0000771 15.1670000 2
23649 23647 23648 23650 4 180.0000771 4.6024000 2
23646 23647 23656 23648 4 180.0000771 4.6024000 2
23646 23647 23656 23654 1 180.0000771 15.1670000 2
23646 23647 23656 23657 1 180.0000771 15.1670000 2
23648 23647 23656 23654 1 180.0000771 15.1670000 2
23648 23647 23656 23657 1 180.0000771 15.1670000 2
23649 23648 23647 23656 1 180.0000771 15.1670000 2
23650 23648 23647 23656 1 180.0000771 15.1670000 2
23647 23648 23650 23651 1 180.0000771 15.1670000 2
23647 23648 23650 23652 1 180.0000771 15.1670000 2
23649 23648 23650 23651 1 180.0000771 15.1670000 2
23649 23648 23650 23652 1 180.0000771 15.1670000 2
23648 23650 23652 23653 1 180.0000771 15.1670000 2
23648 23650 23652 23654 1 180.0000771 15.1670000 2
23651 23650 23652 23653 1 180.0000771 15.1670000 2
23651 23650 23652 23654 1 180.0000771 15.1670000 2
23648 23652 23650 23651 4 180.0000771 4.6024000 2
23650 23652 23654 23655 1 180.0000771 15.1670000 2
23650 23652 23654 23656 1 180.0000771 15.1670000 2
23653 23652 23654 23655 1 180.0000771 15.1670000 2
23653 23652 23654 23656 1 180.0000771 15.1670000 2
23650 23654 23652 23653 4 180.0000771 4.6024000 2
23647 23654 23656 23657 4 180.0000771 4.6024000 2
23652 23654 23656 23657 1 180.0000771 15.1670000 2
23655 23654 23656 23657 1 180.0000771 15.1670000 2
23647 23656 23654 23652 1 180.0000771 15.1670000 2
23647 23656 23654 23655 1 180.0000771 15.1670000 2
23652 23656 23654 23655 4 180.0000771 4.6024000 2
23658 23659 23660 23661 1 180.0000771 15.1670000 2
23658 23659 23660 23662 1 180.0000771 15.1670000 2
23661 23659 23660 23662 4 180.0000771 4.6024000 2
23658 23659 23668 23660 4 180.0000771 4.6024000 2
23658 23659 23668 23666 1 180.0000771 15.1670000 2
23658 23659 23668 23669 1 180.0000771 15.1670000 2
23660 23659 23668 23666 1 180.0000771 15.1670000 2
23660 23659 23668 23669 1 180.0000771 15.1670000 2
23661 23660 23659 23668 1 180.0000771 15.1670000 2
23662 23660 23659 23668 1 180.0000771 15.1670000 2
23659 23660 23662 23663 1 180.0000771 15.1670000 2
23659 23660 23662 23664 1 180.0000771 15.1670000 2
23661 23660 23662 23663 1 180.0000771 15.1670000 2
23661 23660 23662 23664 1 180.0000771 15.1670000 2
23660 23662 23664 23665 1 180.0000771 15.1670000 2
23660 23662 23664 23666 1 180.0000771 15.1670000 2
23663 23662 23664 23665 1 180.0000771 15.1670000 2
23663 23662 23664 23666 1 180.0000771 15.1670000 2
23660 23664 23662 23663 4 180.0000771 4.6024000 2
23662 23664 23666 23667 1 180.0000771 15.1670000 2
23662 23664 23666 23668 1 180.0000771 15.1670000 2
23665 23664 23666 23667 1 180.0000771 15.1670000 2
23665 23664 23666 23668 1 180.0000771 15.1670000 2
23662 23666 23664 23665 4 180.0000771 4.6024000 2
23659 23666 23668 23669 4 180.0000771 4.6024000 2
23664 23666 23668 23669 1 180.0000771 15.1670000 2
23667 23666 23668 23669 1 180.0000771 15.1670000 2
23659 23668 23666 23664 1 180.0000771 15.1670000 2
23659 23668 23666 23667 1 180.0000771 15.1670000 2
23664 23668 23666 23667 4 180.0000771 4.6024000 2
23670 23671 23672 23673 1 180.0000771 15.1670000 2
23670 23671 23672 23674 1 180.0000771 15.1670000 2
23673 23671 23672 23674 4 180.0000771 4.6024000 2
23670 23671 23680 23672 4 180.0000771 4.6024000 2
23670 23671 23680 23678 1 180.0000771 15.1670000 2
23670 23671 23680 23681 1 180.0000771 15.1670000 2
23672 23671 23680 23678 1 180.0000771 15.1670000 2
23672 23671 23680 23681 1 180.0000771 15.1670000 2
23673 23672 23671 23680 1 180.0000771 15.1670000 2
23674 23672 23671 23680 1 180.0000771 15.1670000 2
23671 23672 23674 23675 1 180.0000771 15.1670000 2
23671 23672 23674 23676 1 180.0000771 15.1670000 2
23673 23672 23674 23675 1 180.0000771 15.1670000 2
23673 23672 23674 23676 1 180.0000771 15.1670000 2
23672 23674 23676 23677 1 180.0000771 15.1670000 2
23672 23674 23676 23678 1 180.0000771 15.1670000 2
23675 23674 23676 23677 1 180.0000771 15.1670000 2
23675 23674 23676 23678 1 180.0000771 15.1670000 2
23672 23676 23674 23675 4 180.0000771 4.6024000 2
23674 23676 23678 23679 1 180.0000771 15.1670000 2
23674 23676 23678 23680 1 180.0000771 15.1670000 2
23677 23676 23678 23679 1 180.0000771 15.1670000 2
23677 23676 23678 23680 1 180.0000771 15.1670000 2
23674 23678 23676 23677 4 180.0000771 4.6024000 2
23671 23678 23680 23681 4 180.0000771 4.6024000 2
23676 23678 23680 23681 1 180.0000771 15.1670000 2
23679 23678 23680 23681 1 180.0000771 15.1670000 2
23671 23680 23678 23676 1 180.0000771 15.1670000 2
23671 23680 23678 23679 1 180.0000771 15.1670000 2
23676 23680 23678 23679 4 180.0000771 4.6024000 2
23682 23683 23684 23685 1 180.0000771 15.1670000 2
23682 23683 23684 23686 1 180.0000771 15.1670000 2
23685 23683 23684 23686 4 180.0000771 4.6024000 2
23682 23683 23692 23684 4 180.0000771 4.6024000 2
23682 23683 23692 23690 1 180.0000771 15.1670000 2
23682 23683 23692 23693 1 180.0000771 15.1670000 2
23684 23683 23692 23690 1 180.0000771 15.1670000 2
23684 23683 23692 23693 1 180.0000771 15.1670000 2
23685 23684 23683 23692 1 180.0000771 15.1670000 2
23686 23684 23683 23692 1 180.0000771 15.1670000 2
23683 23684 23686 23687 1 180.0000771 15.1670000 2
23683 23684 23686 23688 1 180.0000771 15.1670000 2
23685 23684 23686 23687 1 180.0000771 15.1670000 2
23685 23684 23686 23688 1 180.0000771 15.1670000 2
23684 23686 23688 23689 1 180.0000771 15.1670000 2
23684 23686 23688 23690 1 180.0000771 15.1670000 2
23687 23686 23688 23689 1 180.0000771 15.1670000 2
23687 23686 23688 23690 1 180.0000771 15.1670000 2
23684 23688 23686 23687 4 180.0000771 4.6024000 2
23686 23688 23690 23691 1 180.0000771 15.1670000 2
23686 23688 23690 23692 1 180.0000771 15.1670000 2
23689 23688 23690 23691 1 180.0000771 15.1670000 2
23689 23688 23690 23692 1 180.0000771 15.1670000 2
23686 23690 23688 23689 4 180.0000771 4.6024000 2
23683 23690 23692 23693 4 180.0000771 4.6024000 2
23688 23690 23692 23693 1 180.0000771 15.1670000 2
23691 23690 23692 23693 1 180.0000771 15.1670000 2
23683 23692 23690 23688 1 180.0000771 15.1670000 2
23683 23692 23690 23691 1 180.0000771 15.1670000 2
23688 23692 23690 23691 4 180.0000771 4.6024000 2
23694 23695 23696 23697 1 180.0000771 15.1670000 2
23694 23695 23696 23698 1 180.0000771 15.1670000 2
23697 23695 23696 23698 4 180.0000771 4.6024000 2
23694 23695 23704 23696 4 180.0000771 4.6024000 2
23694 23695 23704 23702 1 180.0000771 15.1670000 2
23694 23695 23704 23705 1 180.0000771 15.1670000 2
23696 23695 23704 23702 1 180.0000771 15.1670000 2
23696 23695 23704 23705 1 180.0000771 15.1670000 2
23697 23696 23695 23704 1 180.0000771 15.1670000 2
23698 23696 23695 23704 1 180.0000771 15.1670000 2
23695 23696 23698 23699 1 180.0000771 15.1670000 2
23695 23696 23698 23700 1 180.0000771 15.1670000 2
23697 23696 23698 23699 1 180.0000771 15.1670000 2
23697 23696 23698 23700 1 180.0000771 15.1670000 2
23696 23698 23700 23701 1 180.0000771 15.1670000 2
23696 23698 23700 23702 1 180.0000771 15.1670000 2
23699 23698 23700 23701 1 180.0000771 15.1670000 2
23699 23698 23700 23702 1 180.0000771 15.1670000 2
23696 23700 23698 23699 4 180.0000771 4.6024000 2
23698 23700 23702 23703 1 180.0000771 15.1670000 2
23698 23700 23702 23704 1 180.0000771 15.1670000 2
23701 23700 23702 23703 1 180.0000771 15.1670000 2
23701 23700 23702 23704 1 180.0000771 15.1670000 2
23698 23702 23700 23701 4 180.0000771 4.6024000 2
23695 23702 23704 23705 4 180.0000771 4.6024000 2
23700 23702 23704 23705 1 180.0000771 15.1670000 2
23703 23702 23704 23705 1 180.0000771 15.1670000 2
23695 23704 23702 23700 1 180.0000771 15.1670000 2
23695 23704 23702 23703 1 180.0000771 15.1670000 2
23700 23704 23702 23703 4 180.0000771 4.6024000 2
23706 23707 23708 23709 1 180.0000771 15.1670000 2
23706 23707 23708 23710 1 180.0000771 15.1670000 2
23709 23707 23708 23710 4 180.0000771 4.6024000 2
23706 23707 23716 23708 4 180.0000771 4.6024000 2
23706 23707 23716 23714 1 180.0000771 15.1670000 2
23706 23707 23716 23717 1 180.0000771 15.1670000 2
23708 23707 23716 23714 1 180.0000771 15.1670000 2
23708 23707 23716 23717 1 180.0000771 15.1670000 2
23709 23708 23707 23716 1 180.0000771 15.1670000 2
23710 23708 23707 23716 1 180.0000771 15.1670000 2
23707 23708 23710 23711 1 180.0000771 15.1670000 2
23707 23708 23710 23712 1 180.0000771 15.1670000 2
23709 23708 23710 23711 1 180.0000771 15.1670000 2
23709 23708 23710 23712 1 180.0000771 15.1670000 2
23708 23710 23712 23713 1 180.0000771 15.1670000 2
23708 23710 23712 23714 1 180.0000771 15.1670000 2
23711 23710 23712 23713 1 180.0000771 15.1670000 2
23711 23710 23712 23714 1 180.0000771 15.1670000 2
23708 23712 23710 23711 4 180.0000771 4.6024000 2
23710 23712 23714 23715 1 180.0000771 15.1670000 2
23710 23712 23714 23716 1 180.0000771 15.1670000 2
23713 23712 23714 23715 1 180.0000771 15.1670000 2
23713 23712 23714 23716 1 180.0000771 15.1670000 2
23710 23714 23712 23713 4 180.0000771 4.6024000 2
23707 23714 23716 23717 4 180.0000771 4.6024000 2
23712 23714 23716 23717 1 180.0000771 15.1670000 2
23715 23714 23716 23717 1 180.0000771 15.1670000 2
23707 23716 23714 23712 1 180.0000771 15.1670000 2
23707 23716 23714 23715 1 180.0000771 15.1670000 2
23712 23716 23714 23715 4 180.0000771 4.6024000 2
23718 23719 23720 23721 1 180.0000771 15.1670000 2
23718 23719 23720 23722 1 180.0000771 15.1670000 2
23721 23719 23720 23722 4 180.0000771 4.6024000 2
23718 23719 23728 23720 4 180.0000771 4.6024000 2
23718 23719 23728 23726 1 180.0000771 15.1670000 2
23718 23719 23728 23729 1 180.0000771 15.1670000 2
23720 23719 23728 23726 1 180.0000771 15.1670000 2
23720 23719 23728 23729 1 180.0000771 15.1670000 2
23721 23720 23719 23728 1 180.0000771 15.1670000 2
23722 23720 23719 23728 1 180.0000771 15.1670000 2
23719 23720 23722 23723 1 180.0000771 15.1670000 2
23719 23720 23722 23724 1 180.0000771 15.1670000 2
23721 23720 23722 23723 1 180.0000771 15.1670000 2
23721 23720 23722 23724 1 180.0000771 15.1670000 2
23720 23722 23724 23725 1 180.0000771 15.1670000 2
23720 23722 23724 23726 1 180.0000771 15.1670000 2
23723 23722 23724 23725 1 180.0000771 15.1670000 2
23723 23722 23724 23726 1 180.0000771 15.1670000 2
23720 23724 23722 23723 4 180.0000771 4.6024000 2
23722 23724 23726 23727 1 180.0000771 15.1670000 2
23722 23724 23726 23728 1 180.0000771 15.1670000 2
23725 23724 23726 23727 1 180.0000771 15.1670000 2
23725 23724 23726 23728 1 180.0000771 15.1670000 2
23722 23726 23724 23725 4 180.0000771 4.6024000 2
23719 23726 23728 23729 4 180.0000771 4.6024000 2
23724 23726 23728 23729 1 180.0000771 15.1670000 2
23727 23726 23728 23729 1 180.0000771 15.1670000 2
23719 23728 23726 23724 1 180.0000771 15.1670000 2
23719 23728 23726 23727 1 180.0000771 15.1670000 2
23724 23728 23726 23727 4 180.0000771 4.6024000 2
23730 23731 23732 23733 1 180.0000771 15.1670000 2
23730 23731 23732 23734 1 180.0000771 15.1670000 2
23733 23731 23732 23734 4 180.0000771 4.6024000 2
23730 23731 23740 23732 4 180.0000771 4.6024000 2
23730 23731 23740 23738 1 180.0000771 15.1670000 2
23730 23731 23740 23741 1 180.0000771 15.1670000 2
23732 23731 23740 23738 1 180.0000771 15.1670000 2
23732 23731 23740 23741 1 180.0000771 15.1670000 2
23733 23732 23731 23740 1 180.0000771 15.1670000 2
23734 23732 23731 23740 1 180.0000771 15.1670000 2
23731 23732 23734 23735 1 180.0000771 15.1670000 2
23731 23732 23734 23736 1 180.0000771 15.1670000 2
23733 23732 23734 23735 1 180.0000771 15.1670000 2
23733 23732 23734 23736 1 180.0000771 15.1670000 2
23732 23734 23736 23737 1 180.0000771 15.1670000 2
23732 23734 23736 23738 1 180.0000771 15.1670000 2
23735 23734 23736 23737 1 180.0000771 15.1670000 2
23735 23734 23736 23738 1 180.0000771 15.1670000 2
23732 23736 23734 23735 4 180.0000771 4.6024000 2
23734 23736 23738 23739 1 180.0000771 15.1670000 2
23734 23736 23738 23740 1 180.0000771 15.1670000 2
23737 23736 23738 23739 1 180.0000771 15.1670000 2
23737 23736 23738 23740 1 180.0000771 15.1670000 2
23734 23738 23736 23737 4 180.0000771 4.6024000 2
23731 23738 23740 23741 4 180.0000771 4.6024000 2
23736 23738 23740 23741 1 180.0000771 15.1670000 2
23739 23738 23740 23741 1 180.0000771 15.1670000 2
23731 23740 23738 23736 1 180.0000771 15.1670000 2
23731 23740 23738 23739 1 180.0000771 15.1670000 2
23736 23740 23738 23739 4 180.0000771 4.6024000 2
23742 23743 23744 23745 1 180.0000771 15.1670000 2
23742 23743 23744 23746 1 180.0000771 15.1670000 2
23745 23743 23744 23746 4 180.0000771 4.6024000 2
23742 23743 23752 23744 4 180.0000771 4.6024000 2
23742 23743 23752 23750 1 180.0000771 15.1670000 2
23742 23743 23752 23753 1 180.0000771 15.1670000 2
23744 23743 23752 23750 1 180.0000771 15.1670000 2
23744 23743 23752 23753 1 180.0000771 15.1670000 2
23745 23744 23743 23752 1 180.0000771 15.1670000 2
23746 23744 23743 23752 1 180.0000771 15.1670000 2
23743 23744 23746 23747 1 180.0000771 15.1670000 2
23743 23744 23746 23748 1 180.0000771 15.1670000 2
23745 23744 23746 23747 1 180.0000771 15.1670000 2
23745 23744 23746 23748 1 180.0000771 15.1670000 2
23744 23746 23748 23749 1 180.0000771 15.1670000 2
23744 23746 23748 23750 1 180.0000771 15.1670000 2
23747 23746 23748 23749 1 180.0000771 15.1670000 2
23747 23746 23748 23750 1 180.0000771 15.1670000 2
23744 23748 23746 23747 4 180.0000771 4.6024000 2
23746 23748 23750 23751 1 180.0000771 15.1670000 2
23746 23748 23750 23752 1 180.0000771 15.1670000 2
23749 23748 23750 23751 1 180.0000771 15.1670000 2
23749 23748 23750 23752 1 180.0000771 15.1670000 2
23746 23750 23748 23749 4 180.0000771 4.6024000 2
23743 23750 23752 23753 4 180.0000771 4.6024000 2
23748 23750 23752 23753 1 180.0000771 15.1670000 2
23751 23750 23752 23753 1 180.0000771 15.1670000 2
23743 23752 23750 23748 1 180.0000771 15.1670000 2
23743 23752 23750 23751 1 180.0000771 15.1670000 2
23748 23752 23750 23751 4 180.0000771 4.6024000 2
23754 23755 23756 23757 1 180.0000771 15.1670000 2
23754 23755 23756 23758 1 180.0000771 15.1670000 2
23757 23755 23756 23758 4 180.0000771 4.6024000 2
23754 23755 23764 23756 4 180.0000771 4.6024000 2
23754 23755 23764 23762 1 180.0000771 15.1670000 2
23754 23755 23764 23765 1 180.0000771 15.1670000 2
23756 23755 23764 23762 1 180.0000771 15.1670000 2
23756 23755 23764 23765 1 180.0000771 15.1670000 2
23757 23756 23755 23764 1 180.0000771 15.1670000 2
23758 23756 23755 23764 1 180.0000771 15.1670000 2
23755 23756 23758 23759 1 180.0000771 15.1670000 2
23755 23756 23758 23760 1 180.0000771 15.1670000 2
23757 23756 23758 23759 1 180.0000771 15.1670000 2
23757 23756 23758 23760 1 180.0000771 15.1670000 2
23756 23758 23760 23761 1 180.0000771 15.1670000 2
23756 23758 23760 23762 1 180.0000771 15.1670000 2
23759 23758 23760 23761 1 180.0000771 15.1670000 2
23759 23758 23760 23762 1 180.0000771 15.1670000 2
23756 23760 23758 23759 4 180.0000771 4.6024000 2
23758 23760 23762 23763 1 180.0000771 15.1670000 2
23758 23760 23762 23764 1 180.0000771 15.1670000 2
23761 23760 23762 23763 1 180.0000771 15.1670000 2
23761 23760 23762 23764 1 180.0000771 15.1670000 2
23758 23762 23760 23761 4 180.0000771 4.6024000 2
23755 23762 23764 23765 4 180.0000771 4.6024000 2
23760 23762 23764 23765 1 180.0000771 15.1670000 2
23763 23762 23764 23765 1 180.0000771 15.1670000 2
23755 23764 23762 23760 1 180.0000771 15.1670000 2
23755 23764 23762 23763 1 180.0000771 15.1670000 2
23760 23764 23762 23763 4 180.0000771 4.6024000 2
23766 23767 23768 23769 1 180.0000771 15.1670000 2
23766 23767 23768 23770 1 180.0000771 15.1670000 2
23769 23767 23768 23770 4 180.0000771 4.6024000 2
23766 23767 23776 23768 4 180.0000771 4.6024000 2
23766 23767 23776 23774 1 180.0000771 15.1670000 2
23766 23767 23776 23777 1 180.0000771 15.1670000 2
23768 23767 23776 23774 1 180.0000771 15.1670000 2
23768 23767 23776 23777 1 180.0000771 15.1670000 2
23769 23768 23767 23776 1 180.0000771 15.1670000 2
23770 23768 23767 23776 1 180.0000771 15.1670000 2
23767 23768 23770 23771 1 180.0000771 15.1670000 2
23767 23768 23770 23772 1 180.0000771 15.1670000 2
23769 23768 23770 23771 1 180.0000771 15.1670000 2
23769 23768 23770 23772 1 180.0000771 15.1670000 2
23768 23770 23772 23773 1 180.0000771 15.1670000 2
23768 23770 23772 23774 1 180.0000771 15.1670000 2
23771 23770 23772 23773 1 180.0000771 15.1670000 2
23771 23770 23772 23774 1 180.0000771 15.1670000 2
23768 23772 23770 23771 4 180.0000771 4.6024000 2
23770 23772 23774 23775 1 180.0000771 15.1670000 2
23770 23772 23774 23776 1 180.0000771 15.1670000 2
23773 23772 23774 23775 1 180.0000771 15.1670000 2
23773 23772 23774 23776 1 180.0000771 15.1670000 2
23770 23774 23772 23773 4 180.0000771 4.6024000 2
23767 23774 23776 23777 4 180.0000771 4.6024000 2
23772 23774 23776 23777 1 180.0000771 15.1670000 2
23775 23774 23776 23777 1 180.0000771 15.1670000 2
23767 23776 23774 23772 1 180.0000771 15.1670000 2
23767 23776 23774 23775 1 180.0000771 15.1670000 2
23772 23776 23774 23775 4 180.0000771 4.6024000 2
23778 23779 23780 23781 1 180.0000771 15.1670000 2
23778 23779 23780 23782 1 180.0000771 15.1670000 2
23781 23779 23780 23782 4 180.0000771 4.6024000 2
23778 23779 23788 23780 4 180.0000771 4.6024000 2
23778 23779 23788 23786 1 180.0000771 15.1670000 2
23778 23779 23788 23789 1 180.0000771 15.1670000 2
23780 23779 23788 23786 1 180.0000771 15.1670000 2
23780 23779 23788 23789 1 180.0000771 15.1670000 2
23781 23780 23779 23788 1 180.0000771 15.1670000 2
23782 23780 23779 23788 1 180.0000771 15.1670000 2
23779 23780 23782 23783 1 180.0000771 15.1670000 2
23779 23780 23782 23784 1 180.0000771 15.1670000 2
23781 23780 23782 23783 1 180.0000771 15.1670000 2
23781 23780 23782 23784 1 180.0000771 15.1670000 2
23780 23782 23784 23785 1 180.0000771 15.1670000 2
23780 23782 23784 23786 1 180.0000771 15.1670000 2
23783 23782 23784 23785 1 180.0000771 15.1670000 2
23783 23782 23784 23786 1 180.0000771 15.1670000 2
23780 23784 23782 23783 4 180.0000771 4.6024000 2
23782 23784 23786 23787 1 180.0000771 15.1670000 2
23782 23784 23786 23788 1 180.0000771 15.1670000 2
23785 23784 23786 23787 1 180.0000771 15.1670000 2
23785 23784 23786 23788 1 180.0000771 15.1670000 2
23782 23786 23784 23785 4 180.0000771 4.6024000 2
23779 23786 23788 23789 4 180.0000771 4.6024000 2
23784 23786 23788 23789 1 180.0000771 15.1670000 2
23787 23786 23788 23789 1 180.0000771 15.1670000 2
23779 23788 23786 23784 1 180.0000771 15.1670000 2
23779 23788 23786 23787 1 180.0000771 15.1670000 2
23784 23788 23786 23787 4 180.0000771 4.6024000 2
23790 23791 23792 23793 1 180.0000771 15.1670000 2
23790 23791 23792 23794 1 180.0000771 15.1670000 2
23793 23791 23792 23794 4 180.0000771 4.6024000 2
23790 23791 23800 23792 4 180.0000771 4.6024000 2
23790 23791 23800 23798 1 180.0000771 15.1670000 2
23790 23791 23800 23801 1 180.0000771 15.1670000 2
23792 23791 23800 23798 1 180.0000771 15.1670000 2
23792 23791 23800 23801 1 180.0000771 15.1670000 2
23793 23792 23791 23800 1 180.0000771 15.1670000 2
23794 23792 23791 23800 1 180.0000771 15.1670000 2
23791 23792 23794 23795 1 180.0000771 15.1670000 2
23791 23792 23794 23796 1 180.0000771 15.1670000 2
23793 23792 23794 23795 1 180.0000771 15.1670000 2
23793 23792 23794 23796 1 180.0000771 15.1670000 2
23792 23794 23796 23797 1 180.0000771 15.1670000 2
23792 23794 23796 23798 1 180.0000771 15.1670000 2
23795 23794 23796 23797 1 180.0000771 15.1670000 2
23795 23794 23796 23798 1 180.0000771 15.1670000 2
23792 23796 23794 23795 4 180.0000771 4.6024000 2
23794 23796 23798 23799 1 180.0000771 15.1670000 2
23794 23796 23798 23800 1 180.0000771 15.1670000 2
23797 23796 23798 23799 1 180.0000771 15.1670000 2
23797 23796 23798 23800 1 180.0000771 15.1670000 2
23794 23798 23796 23797 4 180.0000771 4.6024000 2
23791 23798 23800 23801 4 180.0000771 4.6024000 2
23796 23798 23800 23801 1 180.0000771 15.1670000 2
23799 23798 23800 23801 1 180.0000771 15.1670000 2
23791 23800 23798 23796 1 180.0000771 15.1670000 2
23791 23800 23798 23799 1 180.0000771 15.1670000 2
23796 23800 23798 23799 4 180.0000771 4.6024000 2
23802 23803 23804 23805 1 180.0000771 15.1670000 2
23802 23803 23804 23806 1 180.0000771 15.1670000 2
23805 23803 23804 23806 4 180.0000771 4.6024000 2
23802 23803 23812 23804 4 180.0000771 4.6024000 2
23802 23803 23812 23810 1 180.0000771 15.1670000 2
23802 23803 23812 23813 1 180.0000771 15.1670000 2
23804 23803 23812 23810 1 180.0000771 15.1670000 2
23804 23803 23812 23813 1 180.0000771 15.1670000 2
23805 23804 23803 23812 1 180.0000771 15.1670000 2
23806 23804 23803 23812 1 180.0000771 15.1670000 2
23803 23804 23806 23807 1 180.0000771 15.1670000 2
23803 23804 23806 23808 1 180.0000771 15.1670000 2
23805 23804 23806 23807 1 180.0000771 15.1670000 2
23805 23804 23806 23808 1 180.0000771 15.1670000 2
23804 23806 23808 23809 1 180.0000771 15.1670000 2
23804 23806 23808 23810 1 180.0000771 15.1670000 2
23807 23806 23808 23809 1 180.0000771 15.1670000 2
23807 23806 23808 23810 1 180.0000771 15.1670000 2
23804 23808 23806 23807 4 180.0000771 4.6024000 2
23806 23808 23810 23811 1 180.0000771 15.1670000 2
23806 23808 23810 23812 1 180.0000771 15.1670000 2
23809 23808 23810 23811 1 180.0000771 15.1670000 2
23809 23808 23810 23812 1 180.0000771 15.1670000 2
23806 23810 23808 23809 4 180.0000771 4.6024000 2
23803 23810 23812 23813 4 180.0000771 4.6024000 2
23808 23810 23812 23813 1 180.0000771 15.1670000 2
23811 23810 23812 23813 1 180.0000771 15.1670000 2
23803 23812 23810 23808 1 180.0000771 15.1670000 2
23803 23812 23810 23811 1 180.0000771 15.1670000 2
23808 23812 23810 23811 4 180.0000771 4.6024000 2
23814 23815 23816 23817 1 180.0000771 15.1670000 2
23814 23815 23816 23818 1 180.0000771 15.1670000 2
23817 23815 23816 23818 4 180.0000771 4.6024000 2
23814 23815 23824 23816 4 180.0000771 4.6024000 2
23814 23815 23824 23822 1 180.0000771 15.1670000 2
23814 23815 23824 23825 1 180.0000771 15.1670000 2
23816 23815 23824 23822 1 180.0000771 15.1670000 2
23816 23815 23824 23825 1 180.0000771 15.1670000 2
23817 23816 23815 23824 1 180.0000771 15.1670000 2
23818 23816 23815 23824 1 180.0000771 15.1670000 2
23815 23816 23818 23819 1 180.0000771 15.1670000 2
23815 23816 23818 23820 1 180.0000771 15.1670000 2
23817 23816 23818 23819 1 180.0000771 15.1670000 2
23817 23816 23818 23820 1 180.0000771 15.1670000 2
23816 23818 23820 23821 1 180.0000771 15.1670000 2
23816 23818 23820 23822 1 180.0000771 15.1670000 2
23819 23818 23820 23821 1 180.0000771 15.1670000 2
23819 23818 23820 23822 1 180.0000771 15.1670000 2
23816 23820 23818 23819 4 180.0000771 4.6024000 2
23818 23820 23822 23823 1 180.0000771 15.1670000 2
23818 23820 23822 23824 1 180.0000771 15.1670000 2
23821 23820 23822 23823 1 180.0000771 15.1670000 2
23821 23820 23822 23824 1 180.0000771 15.1670000 2
23818 23822 23820 23821 4 180.0000771 4.6024000 2
23815 23822 23824 23825 4 180.0000771 4.6024000 2
23820 23822 23824 23825 1 180.0000771 15.1670000 2
23823 23822 23824 23825 1 180.0000771 15.1670000 2
23815 23824 23822 23820 1 180.0000771 15.1670000 2
23815 23824 23822 23823 1 180.0000771 15.1670000 2
23820 23824 23822 23823 4 180.0000771 4.6024000 2
23826 23827 23828 23829 1 180.0000771 15.1670000 2
23826 23827 23828 23830 1 180.0000771 15.1670000 2
23829 23827 23828 23830 4 180.0000771 4.6024000 2
23826 23827 23836 23828 4 180.0000771 4.6024000 2
23826 23827 23836 23834 1 180.0000771 15.1670000 2
23826 23827 23836 23837 1 180.0000771 15.1670000 2
23828 23827 23836 23834 1 180.0000771 15.1670000 2
23828 23827 23836 23837 1 180.0000771 15.1670000 2
23829 23828 23827 23836 1 180.0000771 15.1670000 2
23830 23828 23827 23836 1 180.0000771 15.1670000 2
23827 23828 23830 23831 1 180.0000771 15.1670000 2
23827 23828 23830 23832 1 180.0000771 15.1670000 2
23829 23828 23830 23831 1 180.0000771 15.1670000 2
23829 23828 23830 23832 1 180.0000771 15.1670000 2
23828 23830 23832 23833 1 180.0000771 15.1670000 2
23828 23830 23832 23834 1 180.0000771 15.1670000 2
23831 23830 23832 23833 1 180.0000771 15.1670000 2
23831 23830 23832 23834 1 180.0000771 15.1670000 2
23828 23832 23830 23831 4 180.0000771 4.6024000 2
23830 23832 23834 23835 1 180.0000771 15.1670000 2
23830 23832 23834 23836 1 180.0000771 15.1670000 2
23833 23832 23834 23835 1 180.0000771 15.1670000 2
23833 23832 23834 23836 1 180.0000771 15.1670000 2
23830 23834 23832 23833 4 180.0000771 4.6024000 2
23827 23834 23836 23837 4 180.0000771 4.6024000 2
23832 23834 23836 23837 1 180.0000771 15.1670000 2
23835 23834 23836 23837 1 180.0000771 15.1670000 2
23827 23836 23834 23832 1 180.0000771 15.1670000 2
23827 23836 23834 23835 1 180.0000771 15.1670000 2
23832 23836 23834 23835 4 180.0000771 4.6024000 2
23838 23839 23840 23841 1 180.0000771 15.1670000 2
23838 23839 23840 23842 1 180.0000771 15.1670000 2
23841 23839 23840 23842 4 180.0000771 4.6024000 2
23838 23839 23848 23840 4 180.0000771 4.6024000 2
23838 23839 23848 23846 1 180.0000771 15.1670000 2
23838 23839 23848 23849 1 180.0000771 15.1670000 2
23840 23839 23848 23846 1 180.0000771 15.1670000 2
23840 23839 23848 23849 1 180.0000771 15.1670000 2
23841 23840 23839 23848 1 180.0000771 15.1670000 2
23842 23840 23839 23848 1 180.0000771 15.1670000 2
23839 23840 23842 23843 1 180.0000771 15.1670000 2
23839 23840 23842 23844 1 180.0000771 15.1670000 2
23841 23840 23842 23843 1 180.0000771 15.1670000 2
23841 23840 23842 23844 1 180.0000771 15.1670000 2
23840 23842 23844 23845 1 180.0000771 15.1670000 2
23840 23842 23844 23846 1 180.0000771 15.1670000 2
23843 23842 23844 23845 1 180.0000771 15.1670000 2
23843 23842 23844 23846 1 180.0000771 15.1670000 2
23840 23844 23842 23843 4 180.0000771 4.6024000 2
23842 23844 23846 23847 1 180.0000771 15.1670000 2
23842 23844 23846 23848 1 180.0000771 15.1670000 2
23845 23844 23846 23847 1 180.0000771 15.1670000 2
23845 23844 23846 23848 1 180.0000771 15.1670000 2
23842 23846 23844 23845 4 180.0000771 4.6024000 2
23839 23846 23848 23849 4 180.0000771 4.6024000 2
23844 23846 23848 23849 1 180.0000771 15.1670000 2
23847 23846 23848 23849 1 180.0000771 15.1670000 2
23839 23848 23846 23844 1 180.0000771 15.1670000 2
23839 23848 23846 23847 1 180.0000771 15.1670000 2
23844 23848 23846 23847 4 180.0000771 4.6024000 2
23850 23851 23852 23853 1 180.0000771 15.1670000 2
23850 23851 23852 23854 1 180.0000771 15.1670000 2
23853 23851 23852 23854 4 180.0000771 4.6024000 2
23850 23851 23860 23852 4 180.0000771 4.6024000 2
23850 23851 23860 23858 1 180.0000771 15.1670000 2
23850 23851 23860 23861 1 180.0000771 15.1670000 2
23852 23851 23860 23858 1 180.0000771 15.1670000 2
23852 23851 23860 23861 1 180.0000771 15.1670000 2
23853 23852 23851 23860 1 180.0000771 15.1670000 2
23854 23852 23851 23860 1 180.0000771 15.1670000 2
23851 23852 23854 23855 1 180.0000771 15.1670000 2
23851 23852 23854 23856 1 180.0000771 15.1670000 2
23853 23852 23854 23855 1 180.0000771 15.1670000 2
23853 23852 23854 23856 1 180.0000771 15.1670000 2
23852 23854 23856 23857 1 180.0000771 15.1670000 2
23852 23854 23856 23858 1 180.0000771 15.1670000 2
23855 23854 23856 23857 1 180.0000771 15.1670000 2
23855 23854 23856 23858 1 180.0000771 15.1670000 2
23852 23856 23854 23855 4 180.0000771 4.6024000 2
23854 23856 23858 23859 1 180.0000771 15.1670000 2
23854 23856 23858 23860 1 180.0000771 15.1670000 2
23857 23856 23858 23859 1 180.0000771 15.1670000 2
23857 23856 23858 23860 1 180.0000771 15.1670000 2
23854 23858 23856 23857 4 180.0000771 4.6024000 2
23851 23858 23860 23861 4 180.0000771 4.6024000 2
23856 23858 23860 23861 1 180.0000771 15.1670000 2
23859 23858 23860 23861 1 180.0000771 15.1670000 2
23851 23860 23858 23856 1 180.0000771 15.1670000 2
23851 23860 23858 23859 1 180.0000771 15.1670000 2
23856 23860 23858 23859 4 180.0000771 4.6024000 2
23862 23863 23864 23865 1 180.0000771 15.1670000 2
23862 23863 23864 23866 1 180.0000771 15.1670000 2
23865 23863 23864 23866 4 180.0000771 4.6024000 2
23862 23863 23872 23864 4 180.0000771 4.6024000 2
23862 23863 23872 23870 1 180.0000771 15.1670000 2
23862 23863 23872 23873 1 180.0000771 15.1670000 2
23864 23863 23872 23870 1 180.0000771 15.1670000 2
23864 23863 23872 23873 1 180.0000771 15.1670000 2
23865 23864 23863 23872 1 180.0000771 15.1670000 2
23866 23864 23863 23872 1 180.0000771 15.1670000 2
23863 23864 23866 23867 1 180.0000771 15.1670000 2
23863 23864 23866 23868 1 180.0000771 15.1670000 2
23865 23864 23866 23867 1 180.0000771 15.1670000 2
23865 23864 23866 23868 1 180.0000771 15.1670000 2
23864 23866 23868 23869 1 180.0000771 15.1670000 2
23864 23866 23868 23870 1 180.0000771 15.1670000 2
23867 23866 23868 23869 1 180.0000771 15.1670000 2
23867 23866 23868 23870 1 180.0000771 15.1670000 2
23864 23868 23866 23867 4 180.0000771 4.6024000 2
23866 23868 23870 23871 1 180.0000771 15.1670000 2
23866 23868 23870 23872 1 180.0000771 15.1670000 2
23869 23868 23870 23871 1 180.0000771 15.1670000 2
23869 23868 23870 23872 1 180.0000771 15.1670000 2
23866 23870 23868 23869 4 180.0000771 4.6024000 2
23863 23870 23872 23873 4 180.0000771 4.6024000 2
23868 23870 23872 23873 1 180.0000771 15.1670000 2
23871 23870 23872 23873 1 180.0000771 15.1670000 2
23863 23872 23870 23868 1 180.0000771 15.1670000 2
23863 23872 23870 23871 1 180.0000771 15.1670000 2
23868 23872 23870 23871 4 180.0000771 4.6024000 2
23874 23875 23876 23877 1 180.0000771 15.1670000 2
23874 23875 23876 23878 1 180.0000771 15.1670000 2
23877 23875 23876 23878 4 180.0000771 4.6024000 2
23874 23875 23884 23876 4 180.0000771 4.6024000 2
23874 23875 23884 23882 1 180.0000771 15.1670000 2
23874 23875 23884 23885 1 180.0000771 15.1670000 2
23876 23875 23884 23882 1 180.0000771 15.1670000 2
23876 23875 23884 23885 1 180.0000771 15.1670000 2
23877 23876 23875 23884 1 180.0000771 15.1670000 2
23878 23876 23875 23884 1 180.0000771 15.1670000 2
23875 23876 23878 23879 1 180.0000771 15.1670000 2
23875 23876 23878 23880 1 180.0000771 15.1670000 2
23877 23876 23878 23879 1 180.0000771 15.1670000 2
23877 23876 23878 23880 1 180.0000771 15.1670000 2
23876 23878 23880 23881 1 180.0000771 15.1670000 2
23876 23878 23880 23882 1 180.0000771 15.1670000 2
23879 23878 23880 23881 1 180.0000771 15.1670000 2
23879 23878 23880 23882 1 180.0000771 15.1670000 2
23876 23880 23878 23879 4 180.0000771 4.6024000 2
23878 23880 23882 23883 1 180.0000771 15.1670000 2
23878 23880 23882 23884 1 180.0000771 15.1670000 2
23881 23880 23882 23883 1 180.0000771 15.1670000 2
23881 23880 23882 23884 1 180.0000771 15.1670000 2
23878 23882 23880 23881 4 180.0000771 4.6024000 2
23875 23882 23884 23885 4 180.0000771 4.6024000 2
23880 23882 23884 23885 1 180.0000771 15.1670000 2
23883 23882 23884 23885 1 180.0000771 15.1670000 2
23875 23884 23882 23880 1 180.0000771 15.1670000 2
23875 23884 23882 23883 1 180.0000771 15.1670000 2
23880 23884 23882 23883 4 180.0000771 4.6024000 2
